(written by ASE)

64 atoms
1 atom types

0.0      8.6072316419315626  xlo xhi
0.0      8.6072316419315626  ylo yhi
0.0      8.6072316419315626  zlo zhi

Atoms # atomic

     1   1      4.4053672831448702      8.1808612015238218      1.2408151800890312
     2   1      8.1652455385005691      2.6840055406941139      3.6436688064632801
     3   1     0.23720767152931321      6.4856618715960117      4.6319241534348592
     4   1      2.8380772635993936       6.786188483556038      2.6096681283490852
     5   1      3.9033613838870465      1.1537279378840073      3.4696868522212601
     6   1      1.7511863852645566      2.2577916839518535      6.4585625532490072
     7   1      2.4135431344121727       4.176151107507577      8.4414322585485788
     8   1      8.2772062259940533      6.2384349119796623       4.658464916530999
     9   1      2.3832667328318444       1.382769053269139      8.3483727069474423
    10   1      4.4419218589345668     0.99728216587019458      5.3665207522825487
    11   1      6.6850914775209773      5.2762614094322293      7.8953938297474551
    12   1     0.34078506081922061      4.5496902323169515      3.9536103454458176
    13   1     0.53665727051992573      5.5200601102784654      7.3388083463206319
    14   1      5.1035806928263092      2.2387189821494684      7.2290548032951509
    15   1      4.3853490728657505      4.3973389718914611      6.4815054310644822
    16   1       6.774725700618041      1.6492855277466623      6.9061341960690017
    17   1      2.3587979618963533     0.06104101155232796      5.5578693242490775
    18   1      6.1964268250594667      7.1919377992851237      2.4261877548510098
    19   1      7.7010266796329843      3.6384223370402076      5.0739808017537236
    20   1      7.1166771389111014      7.6218780591975301      5.6838317261360061
    21   1      1.4159521493235521      3.2289770986214847      2.7262387693964927
    22   1       5.950498005281732      1.5370095201816023      3.4106685777444121
    23   1     0.05013363931485338      2.2593527974224101      3.6252696890590985
    24   1      6.2427729335109543      5.6279762200514574      3.7116685169241634
    25   1      2.9419063629426039      4.6794875127807876      1.6895727607723103
    26   1      3.6229679465173885      5.7236734466726817      3.9242861971832013
    27   1      5.0482991012254717      7.2273598894256503      6.2529266457088948
    28   1      2.7038232060313616      2.6944754358738923      4.9637880456253622
    29   1      8.3635607043020617      6.6677136539850874      6.8094731517192146
    30   1      5.9358064951942975      4.3066837028823342     0.66347819560643029
    31   1      4.2041956428475364      1.8318856774771146      1.1421477710118728
    32   1      7.2406441967804858      3.3574620261690549      8.3894068202037193
    33   1      1.7318025557352394      8.5058289957374527       6.526914209701455
    34   1      7.7895667635752144     0.14483633714731953      2.6123716366359924
    35   1      8.5988471854471928      2.2563581989974617      7.3079228739557802
    36   1      3.1218158644974414      6.5482852994936067     0.22795864734855459
    37   1     0.64735946143379464      8.2875984664716462      4.6480015315039243
    38   1      6.1745846199686456      2.3782901179972806      1.1545221949262741
    39   1     0.39582231659048595      1.5048499739265511      1.6508559834649492
    40   1      4.6218430741241265      3.8821961727959668      8.2396543684674999
    41   1      7.2733094919099033      8.0800544420131732     0.19467603174483963
    42   1      1.0165590482103857      3.1008747076942367     0.80552372277706352
    43   1      3.3194464034955988     0.17071708447951439     0.70457074258837926
    44   1      7.6132817149131915      2.7255525631649231     0.18474455505154583
    45   1      7.1114957336313669     0.53233089910391207     0.80040362168859958
    46   1      8.2903281492522094      6.4843906648514089      2.9079893845211666
    47   1      7.9772270636476081       5.356395275366852      1.0045487722107431
    48   1     0.20561655556664515     0.56431724004060579      8.3013421644479486
    49   1      2.3853508089442079      4.7367166691710816      4.7977473502121173
    50   1      1.1862725572631951      8.4673635189889787    0.023645335770707276
    51   1      4.4948687486285834       4.123152431280988      4.6577263967481599
    52   1      7.8556764903325176      4.4340610295651759      2.6138789896546499
    53   1      2.4658946109614006       8.152389279021671      8.2778909699704482
    54   1      1.4650039706342206      5.2829342337285858     0.33173466708939825
    55   1      5.8652986117009691       3.786635186241563      3.5842229575371167
    56   1      2.3343987007072786      5.3940378105342068      6.9106248720723018
    57   1      5.2237376083723586      6.2708704601654892      1.1245058575170177
    58   1      8.5417199631585827     0.36602970304265092      7.1139524281119693
    59   1      7.4158128616901609      7.9330862248252494       8.048258366826996
    60   1      4.4175545238149452      6.8083878585434965       8.594827679949427
    61   1      1.2641273639213038      8.3787889747946735      2.2848363896910207
    62   1    0.083590291792701693        2.81452051695473      8.0148688545801061
    63   1      4.3273759583753026     0.66554399043427226      8.0350702654963122
    64   1      0.9270427075628348      6.3274738132066632      2.9369158249396987
