(written by ASE)

216 atoms
1 atom types

0.0      15.105231467575635  xlo xhi
0.0      15.105231467575635  ylo yhi
0.0      15.105231467575635  zlo zhi

Atoms # atomic

     1   1       2.874622638397855      5.7804512139592417      6.2597056967765967
     2   1      10.608151931812914      2.4774491958715981      14.986307771141878
     3   1      6.8786724232065284       7.077339654502051      4.6620213619504725
     4   1      12.719373752861593      6.5846807121192414      13.759788272693255
     5   1      6.8972288826883128    0.056583784498771272      5.8232598597595642
     6   1      6.9198692111429416      11.071447100651229      3.9486124503569711
     7   1      10.917474421888832      9.6604271558566808      1.9848169514726519
     8   1      11.625055719264227      2.9362826612720592      5.2637732384826617
     9   1      4.2749800284258699      7.1184209468960038      6.5372772260198193
    10   1      12.929489251478246      12.661066523075277      5.0311934508479341
    11   1      4.7655969052655802      11.664925681237625      13.186303261628394
    12   1      11.994516407618296      14.870989515471205      13.558251242847629
    13   1      6.1952027660239057      7.7648548910871291      6.5131747803722222
    14   1      1.2565904304316691      12.946672744442482      10.294802576296485
    15   1      14.936280480130712      4.9753260396019829      6.8304841800007852
    16   1      1.6629967977418414      3.4194303461619326      2.3874104451900817
    17   1      14.641404019911684      14.568751082078315      6.8157902677901907
    18   1      4.0051050522893652      10.662449873990711      10.180511857690428
    19   1      4.9322646320906562     0.27172631492206101      6.3091725237201395
    20   1      6.4390368567628729    0.072407476647737806      15.060701009612197
    21   1      5.5413795171815732      12.645521171801551      6.8578351713739378
    22   1       3.163017609393493      9.9681886280189218      5.0171802968032182
    23   1      9.1958103838511001      9.0473588350394181      10.486898164688675
    24   1      3.9526332341886463       4.682442194773996       8.246664613585688
    25   1      8.2141948116151831      11.960410305876207      6.2559361672942062
    26   1      4.9777738364060422      1.5611823284749673      8.6885898953081018
    27   1      14.712132260551918      5.8686970034320289       15.05519592095019
    28   1      5.3382796615725052      6.2358196411554765      13.324299711239361
    29   1      3.8353436347727738      14.961023467716839      12.467573122422685
    30   1      3.7368403473965808      9.3802369939952843      11.985494230964067
    31   1      14.215336913646684      10.051010578058047     0.75937246666367486
    32   1     0.04748449654400734      5.4706113623824324      2.5713766703101153
    33   1      2.2863452446454997       1.053910989488527     0.95096436678802065
    34   1      1.0132736609727626      11.831948859461706      2.8380808385068832
    35   1      6.8000058479538774      1.1944230561076892       10.86740266032629
    36   1      1.0447899394239357      0.1929252894703343      14.428468272060648
    37   1      13.129357725710681      3.2270274976080637      12.550387442452589
    38   1      1.3504713915358382      7.7452396867269471      2.0721369031033285
    39   1      13.348619654254593      11.227539699773635      11.417614501795134
    40   1      3.0423362469386008      2.7756461380510657      14.548696160592527
    41   1      7.9433307059356224      13.836863246967686      5.5947441806234393
    42   1      10.543178005757362      11.431642230313726      12.308171818888088
    43   1      2.4392784388967352      4.3503531497182673      13.331448727317277
    44   1      6.7020759579581632      12.575956588933527      11.388635677973332
    45   1      12.201090147841017      3.4544155759061561      10.007539474914347
    46   1      13.202190814958591      9.3478262356976263      7.1809553130015642
    47   1      3.1591742759536592      7.0704291994891433       2.271194690072845
    48   1     0.93988977796122419      7.6448952264873125      4.4059179599594955
    49   1      6.6011258311808261      10.117536575479768      9.7444391134000607
    50   1      1.3418057228013756      1.2777039742928422      3.0030134905192778
    51   1      7.8775259918780733      6.5902025878125174      8.8072659774096422
    52   1      4.9938582014566624      10.891000958708046       3.446852600546868
    53   1      9.3684605391857581      4.0890452163459061      11.578031507114547
    54   1      3.5036092221962587     0.87880732074594803      13.230830444387086
    55   1      8.4524825658893832      4.4275557592378965      7.0339412802608585
    56   1      3.9952918984173227     0.57212762296230268      4.5908784331267425
    57   1      4.5556051169244798      7.7736460831408127      4.3091627118985301
    58   1      14.586137967218573      10.077430884092898      6.1551996408781928
    59   1      4.5607850669526888      2.8882422082204506      11.285085996785853
    60   1      10.345756438714597      10.083028250228583       3.968122373557641
    61   1      5.3475228421492522      2.3305879948207173      14.458231525792206
    62   1      8.9420950450661945      14.509137238744742      10.438841615642843
    63   1      4.7873743558210951      14.369401842353227      3.0343947773527526
    64   1      10.350967161342838      7.4676003385146172       7.788336597072739
    65   1      11.305086641927449      1.6244821142793191      2.3688355777087016
    66   1      7.8294765681998042      9.9085281607903823      13.314128873878074
    67   1      5.7680961602343856      8.2892608794203344      3.0766302636668157
    68   1      12.786171743360548       10.16384003454815      1.9360589874059573
    69   1      13.278978273116238      4.0992304846586638      1.2827322484754167
    70   1      10.032593609604106      4.7140188054697445      9.1884361432004447
    71   1      7.8937181844938538      7.0820346272267649      11.837020253552392
    72   1      10.656005455137015      7.5624744514748068      1.3587581268292868
    73   1      9.9287876581507177      1.3818197192116617      5.9217306848929354
    74   1      14.403964037900231      9.5634618536253058      9.3421220047335165
    75   1      1.5811792187361851      15.018144831860607      1.8208964026281544
    76   1      6.8508802743749868      11.417002321123315      7.8574217102537824
    77   1      14.784511378445103      11.899879120835838      5.0881019354080257
    78   1      3.7262257643810939      7.1298763184326477     0.12782394208597875
    79   1      1.6769482744245503      6.5305869452050143       14.36941238991991
    80   1      1.5145463201034433        3.12886387603176      11.742412597141973
    81   1      8.9063081355294038      1.7078664722812305      13.749474137463414
    82   1       5.916076479503718      1.3758422988066736      3.7381539112232547
    83   1      10.993309273054743      8.6128331082393146      5.7123102598392705
    84   1      6.3227847078207198      9.4556236007775336      12.285199989443862
    85   1      14.257086239035601      8.8011783269359878      3.6112761958660404
    86   1      13.077783330600813     0.37335349459688849      4.6410326397603852
    87   1      9.8906248654830318      6.3697180923793084      2.7250420741410188
    88   1      14.568650182262294      12.441836795939773      11.042674889940567
    89   1       13.53498988633236      5.0766633227507789      12.917153761780339
    90   1      7.2264895106515654      3.5783713261856893      3.8449835722223118
    91   1      11.014322599885068      1.5111190328744355      8.6589975864080948
    92   1      4.9112384809227319      3.5942220470675892      9.7121670317188595
    93   1      8.4147945456463091      12.065142834820636      11.212889893228866
    94   1       4.748292498759028       5.462451289714827      4.8110926399382148
    95   1      7.2343988411987956      13.471184626734692      7.8417003887049024
    96   1      1.6703180779515083      10.707531633294026      13.805754726723215
    97   1       3.484719332678325      2.5464879019132449      3.8215647094984377
    98   1      12.910139206078641      2.3402547207266418       6.489840213451247
    99   1      2.1099593352544588      4.3192993289389294      5.4576815176904327
   100   1      9.0364880845227571      12.524592649932986      13.197204381791233
   101   1      15.066002054155305      8.0328006896354598      1.3103148637734399
   102   1      3.6466638087108789       7.368734171080316      12.517548421025777
   103   1      12.599799307475688      10.356200316236052      9.4442455918743544
   104   1      14.694303616774896      7.4294519193739834      11.661370995507481
   105   1      3.4490351464483604      2.4223001899036327      8.8631892822769576
   106   1      12.596929112155118       14.52888004564662      9.4793032089117943
   107   1      13.016081655783854      13.161728223052476      14.322543044345441
   108   1      5.5475780317336616      7.7775721354173912    0.028264831611100702
   109   1      6.1166846114729383      4.4702534679506591      11.198646348971975
   110   1      2.7289957837120293      8.4778731212670966      6.4295407347374374
   111   1      6.5694282973771045      2.4377988258752339     0.37038238397502077
   112   1       10.88496949341549       8.105056330668317      3.5661876584031975
   113   1      10.610644297003265      4.5492827211380664      1.2125047561908491
   114   1      14.933501070945235      1.6679066919690195      12.295912173750455
   115   1       10.44534268604418      12.347470222720021      4.7786555059635303
   116   1      10.338485930515578      8.1798342010846081       14.06697611385969
   117   1      1.8595969291959586      2.3564120040596834      5.2114967058602275
   118   1      1.1863883091749756      1.3257229909694244        12.6308534729071
   119   1      12.054604491655892      8.0377238681602616      8.3725516194888776
   120   1      3.7284933549116284      11.938461905043638      1.7540828599404648
   121   1      10.547992583992814      3.1754976751260307      10.571600811800614
   122   1      11.650927950910177     0.33908825728796105      12.613069431262536
   123   1      1.4732438498236371      10.479223280672358       8.811710668315504
   124   1      13.928965447231146      7.0015307354392124      2.6761615234568201
   125   1      2.0994138151105641      13.575293009735423       5.492973976112367
   126   1      1.3322988410443535     0.65888124504842904      10.513492552301811
   127   1      4.6023785042819751       7.207281845176488      9.4048303520516683
   128   1       8.584419517912373      11.457259769644857     0.64318427838675651
   129   1      6.0018826955711662      12.373282501268584      2.5552018223502362
   130   1      3.2592317972793134      12.897697622378432      14.293565992522966
   131   1      6.3393539678603616      14.744901661472216      5.4089530081852608
   132   1      15.030782866706154        2.64238010016975      1.0902494835355405
   133   1      1.4322092482792586      9.1947185576239896      1.0009395711054703
   134   1       5.663082538965325       13.29061379364809      8.7619077693086265
   135   1      3.3140299245286555      9.0212377248139468      3.3441243211095819
   136   1      8.9732761044886118      9.2239304138257552     0.89329885946908216
   137   1      6.8936959481201798      2.4167230102785244      6.4309108154908685
   138   1      11.514582351775534      14.289256254344945      2.9602340177222382
   139   1      14.014665891474065       12.13159686845745      8.5367988350788675
   140   1      8.2474282993279555     0.81757294933580527      2.2509155234124822
   141   1     0.72294687645778799      3.8797135137776535      8.5482857792203113
   142   1      11.334028111973177        5.17759323822734      10.397747586705925
   143   1      8.3283925480469936      10.627251529972714       14.91354668749546
   144   1      1.3204668642596595      6.0175147193637804      7.1824068046908751
   145   1      10.519653000196675      12.260433334989843      1.4073179075460112
   146   1      13.385733698185524      14.951027254430791      2.0780007832770964
   147   1      13.221593431221633     0.68257812577505417      8.3086274909421096
   148   1      14.572203953046719      2.2293785072126062      3.0621533308462068
   149   1      6.6683108166462191      4.6153744564423755      13.882288784538556
   150   1      9.6295639572704275      4.8958078149700519      4.9362003550064992
   151   1      12.001530167942819      8.7844399205181336      10.449012516813051
   152   1      7.8723279070207468      1.9864946054988026      12.255609794316346
   153   1      7.0833031860223352      14.961626114235331      8.9215355974156321
   154   1     0.29969366954229643      12.679478440082807       13.87465112490332
   155   1      12.188420252237432      4.6939497716308516      4.7353028172179323
   156   1     0.59198376698215249       10.48581593928445       5.608721418723019
   157   1      4.4102361685007381      3.0763885541694274     0.77504243871444078
   158   1      8.2070190489971502       7.262817818505658      3.1868303309064787
   159   1       5.137497611144985      4.6842472913711379      6.9189637291423969
   160   1      3.0238258859848379      12.629591886472896      8.1010971975245134
   161   1      12.971244460030588     0.88853453805968763      15.094982710174596
   162   1      7.7038428062364854      0.3435190933036294      9.0703755640977057
   163   1      13.609083765472635       6.145265054782568    0.043683740188755274
   164   1      14.118268916736856      2.1874086064849108      8.7405959730561058
   165   1      11.733916853845184      10.358757555140858       6.208137956574256
   166   1      14.615545919954958      2.1222470786506604      14.089261233119871
   167   1      1.5623396355920158      13.379012842915976      7.4475968626085853
   168   1      6.3044194850765241      12.120017902890657      14.975921492184792
   169   1       3.732900019946821      6.0165509916155591      14.827543040780588
   170   1      4.4203135809091947      3.8339655752057875      13.251437077741832
   171   1      6.5647780121725035      2.1343771096771484      2.2488744434883468
   172   1      2.9878713018416394      13.986577288796548      3.8828390638180053
   173   1      14.911476922442473      4.8731259558204059      4.9173977863835212
   174   1      14.099518306126518      6.0023000275482152        8.02929986166051
   175   1     0.60829757997524447      9.5061345751790896      3.7247110311980265
   176   1      5.4665252075060939      6.4664804116130687      1.5480650967322769
   177   1      4.1623596210360461      14.796627142223494      9.0506139206180336
   178   1      5.0257255599753146      8.0700639721361096      11.123586226769929
   179   1      5.8212852203967644     0.53020077308523406      13.373802182349221
   180   1      4.0306299728298143     0.45174686793993729      9.9314071061818314
   181   1     0.42189588190304228      9.9516565401900969      7.4892250247595058
   182   1     0.36547877683076591      6.7677435664523191      12.347728689485358
   183   1      12.052197129745167      13.464359557170512      10.960796531345347
   184   1      10.223027770642991      10.889026310393737      10.469058468283528
   185   1      2.5465110133348157      5.4129561216081301      11.756719018333795
   186   1      10.541469062153963      14.998606949442042      12.083364644348773
   187   1      8.5874949546436348      10.231773604213856      4.3906351476358516
   188   1      3.3703274377234909      3.2186783798388001      6.4702992622563986
   189   1      12.122839218147636      12.415806389273914      8.1507870609052535
   190   1      4.0801454126769796     0.88754806603116454      1.6246825491425947
   191   1      11.112245015012979      14.210702225738679      6.3307505091819394
   192   1      5.9707548649517355      14.284834132084818      1.7278939124918169
   193   1      7.3942202745199319      7.3571163827015607      14.835578206836834
   194   1      14.480353452818621      5.6841041506917431       10.75892164708582
   195   1      10.610851490285594      6.9657524695166737      10.656228680684425
   196   1      2.4978286353835619      13.882900232160631      11.517483692095858
   197   1     0.94306603971883673      9.2149614434911609      14.838154339892421
   198   1      0.8187516696235092      5.4183906381210889      9.9770022485296632
   199   1      1.9849151057452932      7.7179862814712665      9.9141877481624778
   200   1      7.3815319398097792     0.86476182321744488       0.421423079182215
   201   1      5.2481543864818025      10.706641415667757     0.64387216386225499
   202   1      10.756904368797604      14.325317416368801      8.2890827558240812
   203   1      10.629602884874799     0.29237175165110152        4.54768537391758
   204   1      11.148826178449193      6.0703799431571728       12.54586941040202
   205   1      2.9808586505135199      2.1791994424274486      11.914665449865488
   206   1      12.501116637691238       8.056562566269891        14.7984416389007
   207   1      8.1451645857724397      7.6114186151765963         5.9183023212557
   208   1      10.415996160861837      7.9398853253743544      12.173812891247087
   209   1      14.122205382772613     0.58574906008450278      9.9290842421256222
   210   1       9.883374564107827     0.63579452451922691      12.653666473309539
   211   1      5.5310726598223736      9.7838747691002812      14.940479167519255
   212   1      7.0509252450604611      2.8921371165578451      14.457720701327453
   213   1     0.10534393488426005       12.89612891577554      6.1721074576420643
   214   1      7.8146423157848668      8.8678184918741341       8.379441732995172
   215   1      12.950280530100926      3.6645964233922124      3.3510100812119488
   216   1      2.0376302438262912      11.605260111790935      1.2685236424849666
