(written by ASE)

216 atoms
1 atom types

0.0      14.214567035576126  xlo xhi
0.0      14.214567035576126  ylo yhi
0.0      14.214567035576126  zlo zhi

Atoms # atomic

     1   1      12.751700021024989       4.625141240763492      7.2079581841471816
     2   1      1.1190731215917655      7.3610136291025929      11.958857047371128
     3   1      13.231838307718045      1.0784513127360822      11.481488496858589
     4   1      1.4811324571508566      5.9768855156956855      3.2656452146211974
     5   1      7.9077244841584662      10.724765922204544      9.3248067063170552
     6   1      4.3094941702807876       10.70244169916257      4.7749017963588614
     7   1      10.950554466234824      9.1859338612037753     0.76414060521460148
     8   1      9.8864094778242002     0.70798523801538582      7.8274033371007805
     9   1      10.058805362397001      2.8250087077538333      4.1581582793291085
    10   1      6.0470007383958659      9.1244927177217914      5.6282604382781054
    11   1      4.8004179551455239      8.3026474774810541      14.134802610443144
    12   1      12.280091224108416      13.049692596088571      4.3400382979838792
    13   1      3.2978981908763911      2.0769119302935959      8.7130090761188193
    14   1      12.364309132283534      12.274292857641171       7.584782556268256
    15   1      5.2091799075020786      13.053331900423052      4.7182559751654543
    16   1      13.283003263901064      7.9847474123697859      3.2447028608534971
    17   1     0.61468127780631243      1.8451649412511451      13.264593528171831
    18   1      11.071543860592584       13.85746646576321      8.3070579412533405
    19   1      5.8524286080742511      6.8918667464799102      6.6052384117380294
    20   1      3.8441169956976888      7.0791307126767062      8.4710155471666031
    21   1      10.300921828402243      0.7456579869738672    0.052594728829982187
    22   1      13.076253075537442      9.2959803162045205      6.2121943966045281
    23   1      6.1719387253983315      1.6156537135758045      14.198386569004482
    24   1      5.3749765769065778       13.20344756118295      13.171429758494615
    25   1      7.0457347127449275      6.7812854208904474      13.598663128316424
    26   1      3.5535524523735309      13.786913439913848      4.1508333617011024
    27   1      11.985102138658737      1.1667801981310011     0.29175416381908081
    28   1      3.2031298880167487      8.9546815086406806      3.4970097491006822
    29   1      10.800587034042312      4.8226511620245338       8.351327360122518
    30   1     0.63766747177789163      1.6706062880020687      8.2194890823973559
    31   1      12.832462788400637      1.1870614330870544      7.2655657334482813
    32   1      13.016635816221068      6.2837584640991837      8.2774395181298406
    33   1      1.4032408928224551      12.883622316945067       4.279866032558493
    34   1       4.218821597857481      0.9321517491919914      10.036223449539849
    35   1      3.3871322472045797      12.414330705511796      12.699770818082909
    36   1      5.0144805619403314      5.8021654017053521      13.124426466140951
    37   1       5.777932139433128      13.878769147705723      2.2552250350283747
    38   1      8.9110798865767915      6.7919129195730203      8.2564813471793652
    39   1    0.044230224821044474      8.1395600900375893     0.66326409331016201
    40   1      1.9601529513770561      5.9848933573247534      7.1418357162924204
    41   1      9.0007225947550378      8.0546657080351096      11.819440391735995
    42   1      6.5135077144846996      7.0410305341470689      1.4940496141080455
    43   1      6.9697014713077028      2.6047924486793557     0.89835551950311832
    44   1      8.1799927147582512      5.7335718118930856      5.7842471470171848
    45   1      2.6619377006348932      4.6496503258009145       3.377282877224967
    46   1      7.1154078537887564     0.19184968054769594      12.276275252097019
    47   1      8.2634706548322772      2.5671942206904497      11.993385793608415
    48   1      8.1807498784586645      12.470751522392423      4.2387987250665198
    49   1      11.955425918859467      4.1585695457834344      2.9539987845042499
    50   1       2.295322664733376      5.7979597824611657      9.7673316653312536
    51   1      14.199559168281846      11.079113949129255      2.2266619713342042
    52   1      4.4430880072533352      2.9109271403103874      13.293716716331803
    53   1      5.6214823971990295      7.1453721289952314      3.9405461489324161
    54   1      13.364035441672577     0.78767174199830914      1.6348389774307428
    55   1      10.849929477708578      8.3993100370627278      7.0884646871293011
    56   1      2.1964823902436095      9.0669290082963361      5.4506673558303973
    57   1     0.17836919881990965      10.363806602960954      10.520033988844132
    58   1      5.0347709128366667       11.97211456734721     0.52314728344054551
    59   1      3.3215127094107264      4.8052009219802159      11.709093330429132
    60   1      2.6035353214265422      8.4453189246693352       1.175000822613671
    61   1        8.85700674719034       9.252230338458018      1.0644462587726866
    62   1      11.783156937605938      2.2588648040234767      12.711961807790855
    63   1      1.0689870811789031      10.153109762479739      6.5572377707078005
    64   1      6.8988725691101331      4.5277297418326494      9.6410081389567193
    65   1      7.8883689021668539      7.0820388996096124      10.039129171993752
    66   1       11.98105901800318      3.4851143952012817     0.24536389830463531
    67   1      13.797818261044554      10.544424029011369      10.383382615700425
    68   1        13.8608420875512      14.166665420898271     0.23796929130843866
    69   1      12.034492932343746      12.063602118186871      10.904489226720099
    70   1      12.543247006976912      7.2390516575304504      10.957496106237201
    71   1      9.9362274207948751      13.836589160022303      11.927525556949176
    72   1      9.3629767515809732      12.925000385110645      9.1155342735844584
    73   1      8.5571434152327051      2.3207475009286509       6.073148826922778
    74   1       12.33932546918299      10.951282682724319   0.0099762350650974586
    75   1       12.94353677594108      2.3799918930040458      9.3638253306076979
    76   1      5.2096298630015765      3.1653598201089341      5.6352182151798011
    77   1      1.1295908214050316      5.3107156953768557      1.6740572390210438
    78   1      5.9314185262788977      1.5777487249075168       4.631692626998694
    79   1       3.129172189494875      11.421505037387329      8.5982448683881518
    80   1      11.747248379175323      9.0279519628903042      4.7471981216446615
    81   1     0.71465721865876164      4.0168071547492339      8.5996535924981305
    82   1      5.2168903911763422      1.1266463976046595      1.9908602019366683
    83   1      8.4671365799637943     0.43778890372061524      6.4648634935689024
    84   1     0.57455200872170575       6.786295348337811      6.0444501698925022
    85   1      6.4765461187075202      9.4150262402393938     0.56931417680493968
    86   1      6.7154552916478005      8.6741080100651509      13.824886206862896
    87   1      1.9981298766725843        12.0581890174752      11.652669169224882
    88   1      13.647751611362786      5.8520725533891405      1.7716441546366573
    89   1        9.01994703681512      4.7384800499815505      4.4136494454618562
    90   1      10.039071142502543      10.466156888982782       4.738834955519474
    91   1      4.2029770025093365      7.0097901110363328      0.8737968325694726
    92   1      2.7958543389436525      2.9750253135025795      1.7548901430408546
    93   1      6.7923495850923539      1.3616081468914349      8.8384862949865113
    94   1        11.8790066864584      2.6485749968932164      6.3089324992847544
    95   1      2.5834291836653729       8.435044571805296      8.4095358098069699
    96   1     0.28563992333823551      10.368949668182015      4.1322625848575898
    97   1      10.611554640317273      2.9461979236082998       10.22100338955806
    98   1      10.560298471184614      1.9018257777981382      2.1344348255213488
    99   1      12.612280934140321      5.9311261765288279      5.8331145444676329
   100   1      8.8208981187933091      8.1922850554839197      3.5005460964135882
   101   1      12.683040322400918      13.173474039390262      9.2739181134409225
   102   1      5.4693198352634473      11.925688515184406       11.79869438123567
   103   1      8.3038537986015157      13.034683405291107      13.509674560677833
   104   1      5.2492710757608583        14.2088855825455      6.5842893622871568
   105   1      2.7809615508745678      0.0527307113269418      8.1796611323004491
   106   1     0.22965306511899294      12.999365880454588     0.70809418451945294
   107   1      1.3976717288444698      10.173372614009709     0.22061731872548057
   108   1      12.420561371840485      5.6507069483283443      13.179464820115346
   109   1      4.9808566476052469      9.4560797521521121        10.1071065274175
   110   1    0.093819134541218513      3.7111673554128095     0.79297297278821754
   111   1      13.269768770189836      11.547952098663197         12.928385063421
   112   1      5.8390680435120155      3.5726058784708763      2.7224286372409581
   113   1      10.104698622326847     0.74428684571484216      12.485018434953362
   114   1      2.3062744218738636      7.9329294601978191      13.548448197182644
   115   1      11.292819152003156    0.060589657857141495      6.5528069334131835
   116   1      13.533777780177298      3.0106324844063317      12.190872232981057
   117   1      12.628522583953831      5.8234518429800533     0.16167414625462281
   118   1       7.525687364861473      11.032061670082486      13.455920256929227
   119   1      12.834850452238737      8.0209407873689855     0.79095443769636298
   120   1      10.237744871811609      5.0858953793284174      5.8377120680142971
   121   1       7.761563770203102       4.095129266939022      13.421169166942621
   122   1      6.5546528198705545      8.0676702464223418      12.056078439990422
   123   1      12.744547260287167      14.129644544206874      6.9499581355111442
   124   1      10.897088098696152      9.9609543494816322       8.357862760911388
   125   1       3.375064748438287      3.3181736289001371       5.448187906988319
   126   1      10.497339228098356      5.4130097190679036      11.371784785589432
   127   1      3.9874825373731371      4.7912629752494915      7.1385274503785974
   128   1      11.252980729310293      10.242077386369017      10.260542861454073
   129   1      7.7098266291897755      5.4404955497532601      1.8323253383498326
   130   1      3.9232647222967767      11.852419356090332      2.6176927679312345
   131   1      12.524721244189751      9.9593347490710755      1.9491794820613486
   132   1      10.368720978957477      4.8656447308686861       2.335028004245034
   133   1      7.5086403267801547      8.8002044946140998      7.8263047413848605
   134   1      2.3761936705943776      13.920116431475735      11.321134666739157
   135   1       0.522994538686536      2.2619918987260861      4.7322552650698411
   136   1     0.85582699312833455      9.5824010566886368      8.7399245050959813
   137   1      12.625724373936293      12.703644563362721      2.5108701916982437
   138   1      9.1523492355177929     0.25713476542598535      2.9465292278629658
   139   1       11.26785596165498      14.125168021463715      2.3314131671062412
   140   1      8.0697397234965162      3.4242587133856648      7.9722356022030807
   141   1      1.5485260204256304      7.7867628202824077      10.287922089726115
   142   1      4.4675414970869891      0.5097911713055947      5.9489188665964718
   143   1       6.857190665978794      4.2257832698163424      4.7213887478506003
   144   1       5.966474578633493      1.6868931216593983      11.132013432865477
   145   1      4.7220058173490598      4.2127574001380683     0.34688127274653746
   146   1      8.4400110949251843      10.332174733474231      6.1126624973688024
   147   1      14.135900750599713      2.6727126239186401      7.8064274360067101
   148   1      9.1975524574207768      9.5109197950082383      7.9044497521236892
   149   1      8.9761738266558453      1.1914457080674057      10.008530409386005
   150   1       10.08189841058436      3.8132870190234969      14.001838764078146
   151   1      7.0240083033706586     0.33618776338634077      1.7069990322683435
   152   1      9.6603891742794605      7.6469451682868996       1.323445395167441
   153   1      3.8515194066666072      9.9210594383655426      1.3682272441001671
   154   1       7.597769369378601      7.8944299272673746     0.20886937337509318
   155   1      13.251815693928959      8.1376657455929529      8.5281879138630199
   156   1      4.9398210208836257      4.4802656648829169      8.7007586605860574
   157   1       4.457367146616166      5.1448085054062949      2.8150319728476036
   158   1      1.7732707629225577      5.6495088739457389      11.489605518105327
   159   1      9.3825156406507801      10.142775950014473      10.804434690075604
   160   1       11.37525832677192       6.580461356995472      2.5101145596764707
   161   1      14.062903642462718      2.1812213086921255      4.7281423603730319
   162   1      4.7376201178008461      10.592724983363448      7.7294855830279836
   163   1      13.044779901764617      12.113378020025694       5.678144127128868
   164   1      7.3927125669130911      12.640205549401411      11.498969657954436
   165   1      8.0536814701464934      13.963748077951522     0.88209607046416627
   166   1      11.410502327756774      7.2705967622360221      5.6763944567711366
   167   1      11.747121757513227       9.344953765993548      13.314451936127675
   168   1      4.0698141176004601        10.8686389985121      11.858275451872165
   169   1      13.907032397512538      8.9120546984957159      11.093712449873427
   170   1      3.5087752968738939      1.1313747881776326      4.0028740082351479
   171   1      1.2721828566381521      14.117546493896734      1.6745033783043124
   172   1      11.742404420371601     0.53173782955758564      9.4870672705617967
   173   1      2.6926427698601048      9.0192008492302751      11.592627355178383
   174   1     0.54945669269700903      13.180134190623974      10.807955679244126
   175   1       8.127578453300389      12.250377644426248      2.1568921532788781
   176   1     0.55041065427605262     0.59075351144210042     0.22771565340374803
   177   1      13.621571486789676      10.749697279963033      7.1944180160505358
   178   1      13.642423636864009      3.1765821425027982      2.9701847263315111
   179   1      10.493236739435885      11.880177153964837      1.8738324684739693
   180   1      10.166846049523393       7.138882405619122      4.4086895671295609
   181   1       9.894469682233785      3.9006417445744979     0.54274461861313317
   182   1      2.2687440171777391       12.87840224651864      9.9117479196752534
   183   1      1.3280245065617238      7.0412462761512042      1.2686921471969639
   184   1      2.1257390594265781      2.9471412493315832      3.9825794701005153
   185   1      12.245227479234792      13.039255385771103      13.042956890774915
   186   1     0.14636891862498325      14.085682137316244        4.04204021699584
   187   1      9.1171263732260339      6.6275029861839307       13.21491115175767
   188   1      1.8305598403981145      5.8378094658253747      13.601282464974668
   189   1      9.7987571967304721      12.651103699423269     0.44767136205059638
   190   1      10.253526743199373      12.348991455722093      6.0457039813210489
   191   1      7.5015743180457228      10.484065355910948      11.618295073578938
   192   1       1.048766596071361      13.422965448594573      12.693290523256824
   193   1       6.449917302917501      5.8461936251164079      11.916317881618136
   194   1       10.64919420064596      13.901390737684231      4.5215258467567123
   195   1      5.6716287254393007      13.989192370559625      8.3826748443119108
   196   1       1.078856979301188      1.8186368089786626      11.008501688806776
   197   1      1.7041347004476552      10.810024769745413      13.091433595900543
   198   1      3.9905251432401516     0.93305049874963442      14.138903983494048
   199   1      13.372414051983291      4.9187232998611767      3.8814629171874131
   200   1      6.1388946708478276      5.1726979951581091     0.87109444697463145
   201   1      8.4048181668135058      7.9374751332837512      6.3053588118842443
   202   1      2.4228952070605017      13.037064266892507      5.9229437572719954
   203   1       2.192258019932769      3.0211748253991666      7.5432865021401794
   204   1       14.09859927939012      1.4016079589703085      13.379673856478647
   205   1     0.99705071757860098      2.4669289409646962      2.2926369204320411
   206   1      4.1597915407969239      8.9087408628313991      5.6691128691959998
   207   1      12.053964350452141      11.070696663969873      4.1017062464142926
   208   1      1.6797038892636327      2.6719944438197913     0.15328935860971943
   209   1      8.8345773463687074      4.5619165652445206      9.2564300704092393
   210   1      1.0705356777984862      7.5649916110770627      7.7750859822588749
   211   1      13.823469066575269      4.2221956966529763       0.648539296349117
   212   1      5.3238922786740348      8.7015628302338239      8.4196485851904885
   213   1      3.6600126454693838      7.1293383084514179      10.609118854224265
   214   1      1.7240269710617071     0.84646145147199492      3.9873372843713946
   215   1      3.8790840959846573      12.528189152731203        6.86859714935862
   216   1      6.7718643875659899       5.975211043357854       7.855383381718787
