(written by ASE)

216 atoms
1 atom types

0.0      13.502619807317775  xlo xhi
0.0      13.502619807317775  ylo yhi
0.0      13.502619807317775  zlo zhi

Atoms # atomic

     1   1       12.76212464393242     0.38107170968203025      12.046248203458459
     2   1      5.8695148234933132     0.22583670780997805      1.0195491178519613
     3   1      10.168748961589706      3.9874645422993704      8.0596222351819566
     4   1      11.249537261052183      2.8090698578636948      6.7411794901487951
     5   1      9.8451376614786827      5.9699228774994406      9.4127977516205146
     6   1      7.8398172124151948      11.505085450901017       5.647215062335178
     7   1      3.3615281007188376      2.3882974953313902      2.2487797680078172
     8   1      3.7104567494096448      5.5411043435231999      2.0881681172799405
     9   1      1.4828733078004572      12.012078455995535      11.254388705911616
    10   1      8.0071760613791021      11.425879987682857      9.5762498689014599
    11   1      1.4281975739726243        11.1981517219747       13.36528248207166
    12   1      12.118280198340953      1.8524512526532573      4.6334584842667397
    13   1      1.4166539332168664       5.802954314174972      2.0961016257745553
    14   1       5.746619263880083      4.1328586510340779      3.1275721555517384
    15   1      9.3952853810546255      9.4873566437431265      10.400090564239282
    16   1      1.4406686300658404      2.5301105356261964      9.6812277542008705
    17   1      7.3813002748905445     0.20568727958570204      4.4337726203015349
    18   1      4.6400342325140667      13.152634321266513      9.6723206884758426
    19   1       4.420287071992961      10.932847107839502      1.2137406899768026
    20   1      13.401516758386125      3.3392016348112774      4.1101652705828213
    21   1      3.0045344136839898      10.692566738790136      2.3871658613215843
    22   1      5.5983909099948486      9.6128520522584306      1.4355404904347424
    23   1      8.5255085016198802      13.262903723840724      1.7718163640532676
    24   1      2.6491689702745296      9.8383650584199049       7.772075944132439
    25   1      7.1048123937702909      10.193025142669297     0.12901679105800598
    26   1      3.7345174202218181      1.1695628342269719      5.3105611353071973
    27   1      5.6038801669288167      6.9343576730761045      6.3377165822686088
    28   1      4.3865199952021898      7.0287571832853404     0.66734576531545819
    29   1      10.424210128152735     0.70079410825961153      11.425915280354474
    30   1      2.5988658065382491      13.491324824736861      12.854181666371442
    31   1      7.9693695143023113       9.499392588026474      9.1170264161872581
    32   1      7.5974241945139882      9.2309435803003801       6.017530873136427
    33   1      2.5525157177982249      9.8045497711399694      10.499147382373954
    34   1      6.9185271112152718      7.4347554926716501      7.4742712648525815
    35   1      13.186092927532057      9.3785779288336393      7.7938176728272648
    36   1      2.9964269092305522    0.011927134123944295      7.0653975330363084
    37   1      3.6736172174462971      1.5947903539245689      8.9506158872071317
    38   1      6.6493657188137272      6.3910247786010395      11.194589319387651
    39   1      10.943687367314547      10.890634022239885      5.2173545488269983
    40   1      10.057058553373277      4.8005367650813504       11.72718240761953
    41   1      7.1142641102259017      4.7722538860786887     0.97397526602880657
    42   1      6.1354889105215866      10.209187041228923      13.195284977033438
    43   1      2.5178626978415912      3.0437233242336479      13.015216048842738
    44   1      10.840373324653047      11.647374943454786       8.376191309517683
    45   1      3.3169103509035942      6.9599884424323877      10.953583078570023
    46   1      2.9319027893024168       11.69319773975686      7.9651202474472269
    47   1      2.6436340008413373      6.6712603833207273      7.2749006808279573
    48   1      4.0711717882340359     0.58074645420873716     0.18723588460840915
    49   1      12.786255531475028       9.581988685416519      3.8623167636971152
    50   1      11.868438806142374      13.088004337945057      1.4661096482623313
    51   1      12.345756860753964      10.464304535786116      11.092183196237238
    52   1      1.3184223235203592     0.47020754565265355      8.9077342764795162
    53   1      9.1270341242980528      11.915373900382273      12.842053663443618
    54   1      4.1459384213598156      8.4280210028586708      3.2963259383744199
    55   1      6.6002866203401229      2.9357384275117782      2.1077752393205849
    56   1      12.549557189168075      4.3475943845433616      8.2094861650840301
    57   1      6.7465123948380885       8.861198043047791      3.6996953838457838
    58   1      5.2396435547306686       3.635508673305428      7.4610318804727074
    59   1      6.7490496573450605      1.8697988175418341       11.90812849151804
    60   1        4.99674834482094      13.247202131933033      2.7633395691356903
    61   1      3.6130956936052043      5.0023508212638115        11.5288043848731
    62   1      1.4288438727991553      6.7847155164269255      3.8224562335006089
    63   1    0.079423561316277036     0.84615352402452215      7.5326696711600327
    64   1      1.7089854144201186       13.35681395658164      1.8102553118188067
    65   1      11.991330551171682      5.4158817911246206      3.4643590427370792
    66   1      7.5609925993145515      6.3675017783460062      8.9713302377720723
    67   1      10.326336671949562     0.66350960323634134      7.8754301862703278
    68   1      3.9359646743914998      12.828378526477154     0.73047110586915243
    69   1      5.5463255290008728       11.29065753740881      3.2089951358411488
    70   1      9.0231136468873885      2.3510541218422825      4.7587394725944829
    71   1      13.347568764359087      12.033190799556431      12.521453415536863
    72   1     0.32176493174090448       3.600440483947744      6.8917131258576108
    73   1      3.2067019767510638      11.059913346392104      6.2391112217022169
    74   1      1.8876780127611332     0.39909700395218578      5.4661297754714742
    75   1      1.3358538596555263       13.02699583627585      6.2815435771093044
    76   1      12.040695613154689      6.5191108598857195      10.477137752769378
    77   1     0.89638475753224645       3.167037140375061      4.8971735450527039
    78   1      10.318218149922474       12.75947440676469      2.3593793152912088
    79   1       9.169065446144252      3.0500490780501295     0.16343692825210707
    80   1      6.7063657083110222      2.1378851164931723      9.2518541030900767
    81   1      2.9120809465033655      6.2996398546828045      5.2522367188974366
    82   1      7.9601720983717827      4.0546260198444868      10.306955260922106
    83   1      7.4835636943209574      9.5007109825757095      11.573100975895461
    84   1      5.1901318383681296      6.7350191492902933      8.4014847006043514
    85   1      7.1577618413813822      12.468461461221594     0.84272229835901236
    86   1      10.613415106829509      8.3429922404974519       4.765402469355795
    87   1      5.2104547587781997      2.6090734868333785      4.1711468643914236
    88   1      9.7137527915124018      12.029693637981513     0.39153073435965713
    89   1     0.14250689030155761      2.8989276468361971      13.155071883917207
    90   1      12.285549396312964     0.19337263510747416      6.5565356263182348
    91   1      10.260581025228614      7.2450835334171231      2.8276571258556391
    92   1       6.544806874304621      1.6132741074751538      7.1135628571815879
    93   1      2.9503572595306129      13.456286194339791       4.380176998916089
    94   1       10.51682564645988      10.072078317874935      3.6409094593055342
    95   1      9.6973284699550497      3.6870604553308706      2.5977097214947409
    96   1      11.097554894453651      2.9063737217802275      12.518349391590855
    97   1      11.776399434620112       8.714436563097518      9.1741228256353775
    98   1       12.64888576517354      11.598659661899898      4.1184043814222111
    99   1      3.9661576784463897      9.3524369146808244       6.231524234293949
   100   1      5.5002817895842009      3.7474321848822991      10.481178700484399
   101   1      3.7600002513845547      2.8465987242954767      10.245192743255373
   102   1    0.069708021616198532      7.2244774066735227      4.9696835734002862
   103   1      2.0814636784630092      1.5554244118445544     0.10447758909648264
   104   1      11.793780211712635      1.7029457400816999      9.7286777049725774
   105   1      9.7701459281583265      1.5700703973030838      2.6303876690139325
   106   1      12.090520555754358       9.855472812124054     0.96182596999469616
   107   1     0.88932804736946258      8.9323185985445246      7.9590312736395106
   108   1      3.8732578536354145     0.73173222657236292      12.754500972226378
   109   1      10.180435751956669      6.6033877210326981      12.227011492371973
   110   1      1.3673794825917882      4.7275067083290629      11.460665592231452
   111   1      12.195740963295066      5.8368477315261407      0.1751591676724773
   112   1      9.4120592657371169      5.0905329325378972     0.42744952286662918
   113   1      7.3394427025768962      12.711097115467966      4.2741570584774689
   114   1      8.8482133322445531      5.5807122259334907      7.0583159882234616
   115   1      4.9372615664840858      6.2176250664767325      10.295816690978262
   116   1     0.19447921907026297     0.69366047523242746      11.434698691952786
   117   1      5.1977233753151033      9.6901284131961152      10.490754982447664
   118   1      7.5784546277184148      4.2858319758895922      5.7489204100326186
   119   1      1.6755401737693061      4.8627938988045054      7.8850719001852863
   120   1      5.8908260907154277       9.559635539007493       5.749974729060229
   121   1     0.99526669738203277      6.0748839139716795      6.1747039274166262
   122   1      4.9780572976951936      2.4544522098123172       1.405695293020782
   123   1     0.70676340259421877      8.7982020929812936      1.6432677969992997
   124   1      11.741392219719504      6.6026326808191591      13.361632186596552
   125   1     0.48607365903386346      10.217140315452005      6.1457949746606024
   126   1      1.8955192106453937      11.465293313987699        9.62665272055734
   127   1      3.8974548669443498      3.1672747500030116      5.6990718074767424
   128   1     0.73106868582133244      1.6924936417277987      3.1467475904687485
   129   1      10.914321088168279      13.089550435265158       12.41479988845175
   130   1     0.28495895430635754      10.802147761076137      8.1323208853116142
   131   1      2.4076091944802012      4.2247774248815917      6.3092409216375449
   132   1      7.8595372327168436     0.63325519700408062      10.102136996763846
   133   1       11.03076466565539      10.213189159967147      12.322470004015145
   134   1      12.075239514617405      4.6848321417543657       13.42303802757838
   135   1      2.2531544969613035      7.0848542651286666      13.273452967563919
   136   1      7.5443578886854272      7.0730509020644901      1.9073187675075511
   137   1      0.8596803154650281      10.604019908332745    0.054126848324116475
   138   1      5.4612172965009966      5.8293771644254733      2.0888721697558479
   139   1       9.935284438545839    0.050889559242248646     0.96090777232954872
   140   1      10.258916842854763      9.1836130207857494     0.66314314508313632
   141   1      8.0832923129492826      7.4607063633978248      12.982622785260752
   142   1      13.269778060797556      2.5453726524251468      6.6879319147318022
   143   1      7.6233595886001844      12.941545121556896      7.5674697811567118
   144   1      4.9390512132191997      3.7745983076769698      12.265580010958804
   145   1      3.9469579144279914      4.7121834728697305      4.3836354893828524
   146   1       8.639884146534266      5.9225595188028608      11.740394051783639
   147   1      13.220985333632965      1.7065312180465866      8.3091086518175281
   148   1      3.5209862486407872       12.01295138477585      12.205493662142718
   149   1      13.086903897020449      8.1396674671984997      12.394015337161862
   150   1      1.1659093311301769      4.0078989669171188     0.21076925070116562
   151   1      9.1308710601235532      7.6859589046121437      10.436074133180837
   152   1     0.31060746098184433      13.139472217272559      9.9272672395727177
   153   1      9.5669921630814319      11.634090576087333      6.7637041350425093
   154   1      11.964890773659043    0.088018503480292401      4.3575809338290288
   155   1      7.6432232802314148      4.7686416008553421      12.698519352842643
   156   1      8.7711808862115124      3.3086602747392075      13.055427895685714
   157   1      6.5063477600038899      6.6301980515955368      3.8609045341270769
   158   1     0.47856833012350358      7.0180063715331569      1.1279691480553693
   159   1      4.1337724252595196      6.4393416331732336      12.687410455233028
   160   1      9.4113449442220585      3.9589738076723329      5.6066718078750037
   161   1      9.6218485967496346      8.3145121588518212      12.037553859790451
   162   1      5.4137582396292263      12.469646711836898       4.715233926850984
   163   1      5.3531011677754181     0.37007930620381191      10.295931829206925
   164   1     0.29705860756981151      5.5877491469611771      9.4968629041926267
   165   1      9.5673512597136963      10.309689347662328      8.3957393797035955
   166   1      12.173838742549577       12.72168834483089      9.5262603939148995
   167   1      8.5949866935345476     0.15342744558768145      11.895708272181253
   168   1       2.056631357597174      5.1655031650660606      13.086451319268418
   169   1      7.6544241395544859      12.689428510095468      11.899070569401591
   170   1      13.302440221968986      8.4665122013982863      10.618745553808083
   171   1      11.660906322872124      4.6860941552528477      5.6398314793056024
   172   1      12.148781695399586       3.921224981330476      1.4828242701683463
   173   1      5.3139338744824842      11.545039457388885      7.1084795635655311
   174   1      11.875014807036729      11.301506925059741      6.9513098001235178
   175   1      3.6222509757838064      4.4615113532644495      7.7838396687370768
   176   1      3.9371098207269162      8.1331156809048188        12.2559462013814
   177   1      8.9187625959797057       6.836939020151906      4.2048049395857712
   178   1      1.7410198363995542    0.030623878558026896     0.91612449375579941
   179   1      5.7802478441956167    0.053340651151744245      6.1961436799671255
   180   1      12.891797479271823      5.6688896872650263      1.8398724802026043
   181   1      4.8915933522135884      9.6438707031144677      8.2789843902494749
   182   1      4.7633162058039362       4.223060290222886     0.97147829844860956
   183   1      13.346475484239869      9.0010497297707222      2.2704487801942732
   184   1      4.9956049850087725       13.28695186664727       6.993580596562154
   185   1       10.53383724231634      6.0118138952505182      1.4873903149934766
   186   1       4.598193768702024      13.018901786034265      13.180404207796332
   187   1      1.9243291832268405      8.4175560595433367      4.6692909504135081
   188   1      11.235481694470122      8.5007164355859324      13.387324061228195
   189   1      13.415338012765353      11.344082755857753      8.5844860808985111
   190   1      12.957331744248993      13.116843157796398       3.300889414889193
   191   1      2.9766992496475457      4.5373016396078016       9.511698810563038
   192   1      5.7620041801246238      8.1365626256507699     0.39133940215647672
   193   1      12.192697115627475      7.5940697289273018      6.2302741003404636
   194   1      12.379408043374099      9.8285504597166007      6.0730965033576307
   195   1      1.0337880445140826      12.050510129622625       2.893613619235607
   196   1       9.797071057502416      2.4451112775975234      11.348360334355565
   197   1        8.90924929586037      1.5156964212828565     0.99777790788285436
   198   1      10.687200410893091      10.910764923532962       1.934098117853831
   199   1      11.328768488922046      13.000675226163111       5.561102604430423
   200   1      8.4154370587527136      10.129273039500452      2.1609914021150085
   201   1      12.661992217982318      3.0184607717328751   0.0098074327911749845
   202   1      12.503846016020427      8.3085218769797109    0.078667225208575206
   203   1      8.4963834398058875      6.6277853179176986     0.32038870164151695
   204   1      7.9973031076276371      3.7312661203106225      3.9448226366696693
   205   1      11.772574034504215      6.0192586307953446      7.8520618078259412
   206   1      6.5188253456528162      6.4115823496780058     0.34000703256652476
   207   1       7.677089399347226      8.4685325151859185     0.51567515358137672
   208   1      12.462555863178364     0.58785922607119689     0.77634370721305812
   209   1     0.85539002578253165      7.9634378276910409      12.476800685080585
   210   1      3.1002145048191996      10.033829864417724       12.81904341079489
   211   1    0.053228847610485706      11.931703115267473      5.0155817910193168
   212   1      9.0013822534069696      8.7109385923481124      4.0641626487536797
   213   1      2.1737344032823955      7.6523732972222254      2.2540728897918125
   214   1      5.9727408837746943      1.6840423926946009    0.023151683151075388
   215   1       11.81587349061974      2.8393437697432313      3.1359824542888561
   216   1      2.2284693996160914       12.41881636924823     0.23746004162453935
