(written by ASE)

216 atoms
1 atom types

0.0      12.914791239269141  xlo xhi
0.0      12.914791239269141  ylo yhi
0.0      12.914791239269141  zlo zhi

Atoms # atomic

     1   1      11.546457388595732     0.43307404253994836      8.0918331309009002
     2   1      3.6749076382352701      3.1527434716634071      2.4518495361498776
     3   1       3.227096113924341     0.74679107421865931      4.6248057785440517
     4   1      11.227878553677927       7.708497497261888      10.292385506507891
     5   1      7.5721732384177933      9.4507741213524614      6.6823703085901434
     6   1      1.6128382131047445      7.0311763399463736       6.393079748965075
     7   1     0.99629353802243292      8.8185986580712434      10.516755920482579
     8   1      12.340840480452131      2.9581991973535087      8.5667248425332154
     9   1      4.3704799723231673      9.6446188532287032      7.7538167955946378
    10   1      12.026638287369268      8.5629227244656185     0.12516835686262687
    11   1      7.1929034033243431      4.7720329986409658     0.29366575890969016
    12   1      11.500262842160739     0.41616017355112589      10.036504508030383
    13   1       9.508618504120264      5.6422801848962516      6.7513271017894825
    14   1      11.121378431503533     0.43731397764064112      5.9410257222076988
    15   1      1.4170205592637741      6.9244106458997061      10.622515662127663
    16   1      1.2214867763810133      1.9212658450819171       11.36437522937848
    17   1      9.6508832173467205      12.397101735787931       9.424584008705768
    18   1      2.3320329047882122      11.035208742114527      10.814125226449786
    19   1      7.1528448639056936      6.7387406873279616      1.9922563223117165
    20   1      8.0872592275270083      9.8404012248833155      11.714668806655935
    21   1      6.3398864038405609     0.43565375322227184      8.1667385727300825
    22   1      1.9802485205211637       2.453513249072198      9.8256165486359279
    23   1      5.0860746806271644      3.9995836705098813      1.6384510883252641
    24   1      4.3049361066405609      10.332672715847876      1.3529155281327585
    25   1      5.5309757858293223      2.8789754442687032      3.0234005928992631
    26   1      11.704561096920234      6.2665212227609031      12.858790634041284
    27   1      4.0822867336888509      7.7623191140360817      12.411895978162313
    28   1      11.130849513849018      8.7198281472594399       7.685343068719745
    29   1      7.9605879306520828      9.0910550812109818      1.9709706250522172
    30   1      2.5923665055534721     0.20846422298541445      9.2081675508726946
    31   1      7.3641786206601081      6.5412302320106068      5.3270650813308178
    32   1      10.164473247863551      9.4164326040401782      1.8446738617880938
    33   1      8.8509384860918576      3.0461753494795647     0.32289155596801628
    34   1      5.4453012004882932      5.0514349060745287      4.4230753785727739
    35   1      6.7167296409991231       12.39983162005128      6.0964613005878272
    36   1      1.4075916214237045      11.281098753174492     0.11293015455380555
    37   1      8.4293593703566643      4.3273239763007956      7.1998712966596559
    38   1      11.885831735388672      2.7680357738020422      6.2202981540096527
    39   1     0.45647610332476368      9.0775698346824711      4.6317231413793607
    40   1      2.4507800630622616      2.4416766560829539       6.522277398893868
    41   1      10.205048645793575       10.35728321957485      10.880110591762463
    42   1      5.1505337590771445      3.6854001508253904       6.519666964916385
    43   1      8.0591745229598182      2.5403590210961293      10.113984906327074
    44   1      4.6924922860616878      5.5081589950692411      9.4181660393428626
    45   1      1.1489398856594792      5.4044032407631697      5.7935934378895251
    46   1      4.2496846248143454       3.255258598595276      10.294902736532096
    47   1      12.511036201973623     0.25580212131749824       1.253556456019193
    48   1       9.814558846565836      6.8554351476972197      1.1417660466611632
    49   1      10.951206515574132       6.526358017881452       7.904621889793467
    50   1     0.24403017558572046      12.512165188924827      4.7520402471094672
    51   1      3.8240937758931191      11.977806782818725      12.518646666652982
    52   1     0.91775963921802894      8.9689118580326639      7.7405459719514056
    53   1      7.6274854407371668      4.6817604573907161      2.3485049986001982
    54   1      1.2305734209277592     0.53599999979850665      12.574423668168919
    55   1      9.5564147252285316      4.5304793479115766      12.650934071322729
    56   1    0.022040351179341694       11.01980429504467      1.9616544846517385
    57   1      3.2430998076655131      3.5678475977303203      12.788068610139346
    58   1      7.3082072363507526      4.5011392354377584      8.8535805247738715
    59   1      7.7872702232029081      11.976111745574803      11.372725065745222
    60   1      8.8655059883337408      5.3189334551888656      9.4396201452242181
    61   1      10.035202503553094      3.4522671858602938      3.1425313540947846
    62   1      4.8625938248111771      1.0444327062114847      1.2188260827204669
    63   1      10.525270450717052      12.901287693426948      2.6602138507181619
    64   1      8.6009915684294871      11.146400522513153      5.8161201432481135
    65   1      1.6106145139174106      10.528248557095397      3.1993864085680905
    66   1      1.0831052430280068      4.1596377278834922      1.0423610137308001
    67   1      8.0035192032371434      12.211954390559615     0.87598509466874297
    68   1      6.1476963544414067      6.4905467463483006      7.8255841326499516
    69   1      11.420136149556962      11.193047588329819       3.213404400469928
    70   1      3.6896389585849096      7.2860196657236962      5.0944434384016164
    71   1      11.934065432972927      2.8025721261544052       1.344336078826363
    72   1      9.6941209940738737       0.342445798859425      9.9919120597092075
    73   1      12.318859554019037      12.131916986967504      7.7172407747376957
    74   1      3.1203412966177178      5.9836302332086593     0.45078777441782897
    75   1      10.007329181258898      12.816612005291274       12.19815279108753
    76   1      4.6180186193377173      2.0914920666685881      11.934882462018123
    77   1      1.1555094171763005      10.615294964042807      12.050330658079325
    78   1      9.9142470754278058      2.5686973235147468      6.3061501521292671
    79   1      10.461475969325434      10.691076332154132      7.7406250519738817
    80   1      10.282115042445431      8.6370510254878994      4.0754137422087506
    81   1      1.4549544177762823      7.9282063688601925   0.0020367142038787917
    82   1      4.0107354271161713      5.6024362653484072      5.7046753907073038
    83   1      5.3015648300054066      12.815800558459417      4.3553414587688044
    84   1      2.7080441623951002      3.0941351020158567       4.679581633213199
    85   1      7.4506075954078037      4.1788975211432149      10.950713573993243
    86   1      7.2720961877215293      2.0215544958120821     0.93504840432991276
    87   1     0.68550670015761495      4.0033379825565722       11.80659792089704
    88   1     0.77290257606474067      4.7200690233883229      3.2005187511395752
    89   1      6.0393570278989115     0.58385494232356172      4.4173683666351575
    90   1      11.167717836081124      10.185506426338014     0.48160742174806748
    91   1      4.4462770537283998       10.43303475149925      11.660756167147388
    92   1      10.713519074249076      8.5774227842655453      12.699417157131352
    93   1      11.991913196706644      4.4034982842510937      3.4346848156130458
    94   1      2.5510387682678988      9.6100769698990955      9.4289697035660929
    95   1      11.789430816831826      6.3854207785788235      2.7038281811925167
    96   1      11.203192040996386      12.170793484108909     0.03279192974125493
    97   1      3.0752082820998607      8.7469910999267988     0.44685943205862033
    98   1      5.9615178477270385      10.002330647047639      5.3142347231341684
    99   1      8.9112817911524029      6.3160138764406657      12.046868993270834
   100   1      8.2306404238063049     0.40255654963085957      12.728174497724766
   101   1      4.9749937382888048      9.7325095455176935      9.6656918152027576
   102   1      6.7101551180999373       11.02934989009522      9.2887194238707647
   103   1      7.6569440231217083       12.25977880903706      3.7417813476788599
   104   1      3.7979285699938519       7.651962840626271      9.3952616245018898
   105   1      3.9726985055469473      12.070368440788608      9.0170520588274332
   106   1      10.956756334911404      1.8104331418119104      3.2636980964288838
   107   1      2.7466898760744716      1.4048803407581325      1.8906504640417452
   108   1      11.317823364941571        4.50667688514097      11.921528109247285
   109   1      1.8796878308846023      7.6753908493477327      2.2191703392794451
   110   1      10.777156539537136     0.79211382930959262       12.30956075466273
   111   1       7.950916137533226      2.2997941489036031       3.196258870116313
   112   1      9.5478733471939439      1.9742250388150786      1.5432022601690858
   113   1      7.8677116522354149      3.8840333053387583      4.1429846530813661
   114   1      11.621782668619842      12.213107987891521      10.714439154578944
   115   1      5.9329123998344082       9.427686816014603      1.9868212477234646
   116   1      12.319409098814857      10.168199370708326      9.7631752053121819
   117   1      1.5394478470145072      0.1932475739839471      5.4849268700047897
   118   1      5.0659659766710563      2.6596891918596532      4.9661801755329513
   119   1     0.96530334247217442      7.0824376161323688      8.0941804444696039
   120   1      12.426517459899866       2.759514508086943      11.066676611688953
   121   1      10.781850934259266      10.862565698086382      5.5816081732399514
   122   1     0.91070257339480465      1.7926284232912166      4.4989768718800445
   123   1      4.0837521435783666      4.1462259007780302      7.8690508860314203
   124   1      5.3665190978489727      11.257345361104939      7.0706295989254269
   125   1      8.1042679807811844       6.572396832194217      7.8694422520323517
   126   1       3.446571419146486      9.3563506470688331      4.1286624700923991
   127   1      2.0008903552124147      5.2365692186138153      7.8169937758575676
   128   1      8.4106231627853454    0.017190138125542914     0.90898778493874044
   129   1    0.062271847345904581      3.6503168951878786      5.8371368410601931
   130   1     0.33013476406257569      11.089034990167091      7.6281124833320693
   131   1      8.4187290773302088   0.0075297782951817228      8.0596944931501433
   132   1      12.375217113580865      10.619484304654756       12.58123742681456
   133   1      10.272972913040967      12.598852529673247      5.2260700817260046
   134   1     0.19073883359351965       3.365675269673531      8.8774520658380425
   135   1      9.9128060883436593      4.8049524455663049      10.850715654433484
   136   1      9.2341895374595229      5.7764730508058699      3.4179795072448624
   137   1      7.1889326063236121      3.2303371349077334      12.654996561669263
   138   1      6.4801305450783877      7.2680272054267236      10.533316059546864
   139   1      10.986341619428124      2.8215601981950704      12.771854402577894
   140   1      3.1715776928090258      12.711377002373615      3.8465457727329344
   141   1       8.421368811378084      10.707390947726825      8.2999243805876244
   142   1      2.6466737223551227      12.210836250377278      5.8359368071370445
   143   1      4.9670264031232332      8.1406666465838118      3.3205129983745372
   144   1      12.612384895274468      10.010038642174369      4.1235436414026374
   145   1      8.7309712649160556      2.5023722601960725      11.837034861925659
   146   1      4.8449404725186609        5.17986128190533      12.532563065146856
   147   1      8.8523188201535277       1.108760979960093       4.491359186617343
   148   1      10.301013978229166      12.898604668830163      7.3781886149944711
   149   1       2.834795158900846     0.69159800268656257     0.17516006544947452
   150   1      11.400042623229348      6.6269610524206808     0.21717669450454075
   151   1      0.4938557411016557      6.0267111600916801      1.5974505913276364
   152   1      5.7206488869898777      7.5724598893639374       1.243456986796377
   153   1      9.9346262403075372      4.2611820346009015      4.7447613392792318
   154   1      2.3829402424884565      11.539298952684247      8.3670984708918752
   155   1      6.3742716572305138      10.066602045998572      12.828050730386394
   156   1      12.904990157969131      6.3190847962530725       6.695286817684253
   157   1      5.0233310395181796      0.5720365882301095      12.869731440461395
   158   1      10.819564327450335      2.0152958799451719     0.18962789274121056
   159   1      9.4138302958752647      2.8986748381178851      8.0241052459636784
   160   1      12.800405741071007      7.6430128985960524      1.7537686712982219
   161   1      3.7391135115936032      6.4624159894389912      10.764566019111882
   162   1      11.033218595505902      6.6642496202882251      5.9947020256267338
   163   1      9.5017919619508824      9.2885115736997665      8.2976634307875496
   164   1      4.5743523778980952       6.597678839559098      2.5828449922130483
   165   1      3.3160998227332081      10.515992675511711      5.9293090260419374
   166   1      5.5878478088013006      11.615032683897201      0.2057200881682581
   167   1      12.297515333936218      6.0708273808034257      9.2753132897011401
   168   1       3.652263956138917      12.719968541139171     0.35591458548550131
   169   1       7.431001607175566      7.3908080091259674      12.587508447696697
   170   1      6.9024229949336489      10.083926470889455      3.3852752765988465
   171   1     0.71298316694892694      1.2810008717504429      8.7896881481174116
   172   1      1.0768515781572918      7.5261344520657314      12.231372984729289
   173   1      2.0863438783249104      4.4290412516195286      10.381384846198133
   174   1      5.6868093567783138      7.4125856384860027       5.908751316808611
   175   1      3.2246738876197965      8.8756153719386752      2.4379033603943632
   176   1      6.9436559024179436      1.6909921810395843      6.4970319349212531
   177   1      6.8939422033047624     0.38529395868104971      10.995609809973287
   178   1     0.61900675116942638      1.1684895533747945      2.8685005676399693
   179   1      5.2486969373976837         8.1442695438163      8.0301185781293754
   180   1      6.1157513655115441      3.1074339443006092      9.9762027086600273
   181   1      2.8619558299549817      5.2170552161305377      2.9142425513541048
   182   1      12.471717930733091      7.4627193236188507      4.2047265578950137
   183   1      12.543629661340024      9.3424871092849813      6.8606578602652704
   184   1      0.4902338507167795       5.900384731631898      11.885803894041088
   185   1      6.7921004173951074      10.878672680388318      1.4317210834136389
   186   1      11.536423051646173      4.7617530163744144      0.4474324358976895
   187   1      12.896622763908384      8.3202491073595493      8.2802530675959343
   188   1      4.2610558306028734       1.877834728361081      8.3255557120068353
   189   1      7.0115728371101982      8.8791627675053562  0.00046375744413251118
   190   1      3.7634341245438163      4.0333134727394038    0.043420735225159914
   191   1      9.9935078194356972      2.9744273269708628      10.216229678747411
   192   1      8.7392681050171017      9.5510616495797436      4.6072510084410236
   193   1       3.611960301631687     0.51751611853597779      7.0428692687180101
   194   1      12.175144104916047      12.351126229653596      5.7926199666160478
   195   1      9.2976320662014142      6.9129694464169305      10.308207849990829
   196   1      1.1667400739197351      10.473673472654463      5.6814157457262802
   197   1      1.6847012454025214     0.89004292307519661      7.2958141333814037
   198   1      12.805940914455276      10.378245830732386      1.3613123198136363
   199   1      1.8577851389723383      12.142156242446431      1.6120131251499674
   200   1      9.6564265203023947      8.7104410203511371      6.5073487012571087
   201   1      4.4823267377380445     0.24568319596596946      10.884616118642496
   202   1      1.3039802466322403      6.3989549731385873      3.7304151783446931
   203   1       4.965146155836246      6.0657837857305514     0.47716877467026286
   204   1      2.2395671951265688      8.9858176960345908      12.324354451045545
   205   1      1.0633400784563165      2.0635656452811748     0.75498620101803027
   206   1    0.083901681350139548      8.7942385685142916      1.2905029170034077
   207   1    0.043310658952899428      10.175367580522861      9.3337668564888752
   208   1      3.9679495054026295      12.353045764913007      7.1516215616678602
   209   1      6.0786493053319255      12.519248131671084      10.544352938623573
   210   1      8.0218874192964016       8.335324610405193      9.4395693105311178
   211   1      11.959465840628237     0.75074184342965267      4.2913891387381691
   212   1       1.721951304248919      9.5787737468921552      1.4196077078273202
   213   1     0.95691311013567704      12.332601849089972      10.992124366143496
   214   1      7.4942446765916078      12.893738107351549      9.5272875424739158
   215   1      12.810374456534888      12.771770796927278      1.0283265591727528
   216   1        12.8595892072755      5.3787389232365328      10.845605360989941
