(written by ASE)

216 atoms
1 atom types

0.0      12.417568076963866  xlo xhi
0.0      12.417568076963866  ylo yhi
0.0      12.417568076963866  zlo zhi

Atoms # atomic

     1   1      10.176570593335486      11.909387243405902      3.0159142247119397
     2   1      10.814993351267685      6.2044234987535232      5.4157188436840329
     3   1      4.1621027633107426      7.7878175800264975      4.7715958736420099
     4   1      8.5322419924580934      12.131709432056473      9.3798534923734511
     5   1      10.957979392778221      3.5732086569668371      1.3364105556941273
     6   1      8.8668301495629525      8.9164079226888688      4.8751946296294957
     7   1      6.6389604104539313     0.46554724178201662      3.7623228254810375
     8   1      5.2738654566032404       4.023415269885799     0.41588001679137593
     9   1     0.81160290054077588      9.6537049391445997      2.0570269848472549
    10   1      2.0713597186694375      10.792711463674495      7.2645328229294259
    11   1      1.3667140539235074      10.160052725206166      11.340558856608471
    12   1      11.118232238047622      11.008542401226613      10.254456770523538
    13   1      1.0653524206762286      7.7499884159260448      6.1602357570884463
    14   1      10.270518848939725      5.8874642111228939      7.4844864568003509
    15   1       12.01329991310006      6.2207036913260305      10.251403569992044
    16   1      7.1442039080122601      7.6431392368542994      5.3891038036280232
    17   1     0.21325164245245079      4.6640754825404382      3.0584738055160452
    18   1      8.3252340921268164      3.2993902755620423      3.4225682125436543
    19   1      3.1320661152037412      10.290565802609189      10.622586576815438
    20   1      8.2313514896819431      8.6705183482536601      2.8165725028394353
    21   1     0.86604301214524848      10.648511495897413     0.24335330701752764
    22   1      9.5868478866149136      7.6867862427279272      1.3832201219925739
    23   1       9.145920214393735      9.3130674159841913      10.311844465314563
    24   1     0.98883640796826322      1.5497435097116372      11.518008370096931
    25   1      7.6263300872492623       6.900558983714312       1.930461750987845
    26   1     0.15219243036950272      2.0628846187366294      8.9825491017682602
    27   1      8.1499300075484999      2.5176120671129549      8.5171408305538119
    28   1      6.7366227954042133      9.7057530570638662      5.6490928383511863
    29   1      8.3223591973746096      6.6668173619441049      9.7117033450208421
    30   1       8.868076969445692      10.670085553667013      2.3196864106651551
    31   1      1.6121376590657215      11.953775127039112      2.7870780898522756
    32   1      6.2620280861149968       9.728515780037533      10.300959829608871
    33   1      7.1905969429966339      5.2917666763032996     0.72482199050590479
    34   1      5.8231818702986056      1.9596335934775857        11.8892179578824
    35   1      7.5578818009885032      11.686365908192796      5.1755954091251697
    36   1      6.6453876694466087      3.2403656527050444      6.4669489413044952
    37   1      3.1462134762090614      5.3607742548012531      8.2852457453671047
    38   1      5.2740560010350332      11.103418036691139      11.331062470716107
    39   1      1.2336702579542036      10.686559907025567      4.1610048281607348
    40   1      6.9840163407881057      1.3775908072824383      5.3158729602688846
    41   1      4.6273573552917471      2.6246523539294961      7.0047983591172507
    42   1      1.0401826314204841      3.2020608933212209     0.89372538372469612
    43   1      2.9675215727856914      1.5033444520945667     0.50128163049851771
    44   1      7.2999125192483012      9.2916362043057976      8.2629356681014343
    45   1      5.4626260818218881      1.6686488484168858      9.6896396596242056
    46   1      5.1572457249426948      8.2075438541771284      11.066722768545064
    47   1      3.7457855284099941      11.754308403792516      2.6377281799113304
    48   1      4.8361641396830066     0.89836896120299381      1.2445618766441917
    49   1        4.32141895183039      9.4685380669170787      5.8343504946290059
    50   1      1.4959402814412546      4.3057625096368435       11.44686498251442
    51   1      11.674602211704704      10.614076831111017      4.8305180108845125
    52   1      3.3786490719813389      3.6703718147561357      11.979747617980387
    53   1     0.76234467921873195      6.6246178766209436      8.2146608751212806
    54   1      11.799303772863336      11.971667008310533     0.21890445427064056
    55   1      5.2833766530557273       1.852322480076835      5.4880354144682393
    56   1      1.2832131103375659      2.9595278904407651      5.1211182955566654
    57   1      10.217382366861035      3.2148961584062907      8.3168989013578756
    58   1      7.0275304836410948      4.4448814281233773      10.735733346071465
    59   1      11.262492413012973      6.0424432625992912      1.3937036170579651
    60   1      4.4884021675054457      5.4134919976921587      11.282048835875921
    61   1      11.879835304196254      7.7089646826411817        5.31173043472009
    62   1      5.6152781824760378      10.479773057821971       4.054164825007267
    63   1     0.23286077510450648       6.176923947557909      4.0803404303431527
    64   1      11.994383066246638      1.8888481064167875      3.9383451992963541
    65   1      5.5928854709391604      11.106232080273369      8.3121357466640511
    66   1      10.722534673927688      8.6196510411198695      9.2716618470998746
    67   1      1.2848509009837594      12.263102507313993      9.4257319341895318
    68   1      11.339486514869298       4.103882149005444      10.798120755901126
    69   1      11.396103052049616      10.281903465025396      11.888472122952843
    70   1       4.110188725557701      2.9405422742523304      8.7799351186327055
    71   1      1.9153165992194923      8.1078588249128423      9.2246014032529651
    72   1     0.27750763262901329      1.8673066787631609      1.9399769377153075
    73   1      12.182589123558516      1.1525260647267459      10.220700041596711
    74   1      10.764751827596076         10.201432808965      2.8459769448782573
    75   1       10.18577583829304      9.4098933953019515     0.55839281380745265
    76   1      8.8798127300397258      2.5968130380684649      6.7505592386000473
    77   1      2.4118319121802627      12.337070745729777      4.5264061792704622
    78   1      9.2077793907862748       8.573958131899305      7.3907967325105144
    79   1      3.7507174807287771      1.5594685788240443      3.0194668506165532
    80   1      11.279141067946659      7.5812268244226315      11.197064068627462
    81   1      6.3107086117658007      12.322683542429433      1.7475089844322567
    82   1      3.3406501167754006      4.4114944517927741      6.7301830034847248
    83   1     0.15615717773366786      9.0788258661529273      4.9825563438525906
    84   1      7.2936986385190261      5.9482968375635883      6.3792960897145941
    85   1       8.087387160955382      6.6296789146290758      11.802349236759799
    86   1      5.9954781493573428      11.689881279592525      6.2843142636278948
    87   1     0.83718996731405393      9.4630714667696001      8.2966702511300543
    88   1      10.683709603687758    0.020910420356187995      5.9024694722751132
    89   1      11.670404756885306      3.2861147609468451      5.2223929837516456
    90   1      12.187339443552064      9.2041697900867607      3.4960926851230623
    91   1      6.6514544588249169      2.2266388578191512      2.0579399474571729
    92   1       4.788009136214999      11.361515484969349     0.14461848004447111
    93   1       5.613441396404645       6.186864499465762      4.7000923840211071
    94   1      2.4588140966962335      5.1009481855277556     0.25683005854379437
    95   1       3.697616348634857      1.1472411071204613      4.7464531769974743
    96   1      5.5359399931411239      9.3815973944478586      2.0364970991007487
    97   1     0.51170858496797411      1.5497344973653442      6.7688413622216501
    98   1    0.027811608608589129      4.8842612153611231       1.096759738463035
    99   1      2.6345085137095539     0.94218036640118819      8.4733036529632813
   100   1      5.9422455810864419      5.2391548254642375      2.0426919806199066
   101   1      10.610586638942641     0.18009440999507056      9.8783250777322209
   102   1      11.906405798838829     0.82560035106869056       7.521331888838346
   103   1      6.6921827058986327      3.9737626629973888      4.7430772751561561
   104   1      4.0940222180241319       9.518344543861641      7.7298756201302625
   105   1      2.0034533386793423      2.6523979839978016       2.846244900221762
   106   1      2.8507530580078515      3.6142219422009418      4.4487171299034376
   107   1      5.2852964848281836       3.835630718470346      11.127756054031499
   108   1      3.5295050464811899      7.5387139452093415      7.2987192162276378
   109   1      3.5362126135544667      9.9210962075861335    0.020894176827346452
   110   1      9.2911714452614298     0.33933941403401202      2.3231238319894434
   111   1      8.6239510100719166      6.4295008105644813      4.1552599277504525
   112   1       9.185381826841855      5.6739541951396326      5.9890664575272066
   113   1      7.7129942222648031      8.7084322117141859      11.150981335038718
   114   1      12.205369261138244     0.33478567145256205      1.1949755796132906
   115   1       3.526722368413902      5.5647441329794942      3.9432104182496457
   116   1      10.123097187292222      4.8857946733710644      2.4517139107002013
   117   1      3.4202347672935294       1.209184137312636      10.815615143217913
   118   1      6.0818728557635309      6.7711372406786197     0.38166096718793818
   119   1     0.34133291625102735      3.8536756899511881      7.0376519015526435
   120   1      1.8805903953333971       7.840046403059648      4.1430087175810115
   121   1      3.2213251437228538       12.19824371967251      6.2605543669509052
   122   1       8.810860034535974        10.0707118248973      12.023570615963216
   123   1      8.4280635667818125      12.002906660457715      7.0405103550048729
   124   1      4.2952265548044277      6.4952040735897283      9.6391319544017353
   125   1      10.538227903512441      11.961811287738621      8.2128609766626433
   126   1      8.8746261072277708      1.9715237597963282      11.964282079594451
   127   1     0.58378345911781182      7.5314127528179142      12.196861414721871
   128   1      2.9981732339278246      11.985922082985132     0.28430989395038497
   129   1      6.5259747941734032      11.245300570370373     0.37334960885066326
   130   1      10.466337217074411      2.5739427467391591      10.551247003463816
   131   1      5.0247078801637945     0.41704491176189701      7.2747803017265262
   132   1      11.173791106765909      8.7153321030943953       7.017087980829352
   133   1      4.8125805254835088      8.2816350370165885     0.71309480057160224
   134   1       7.806523628669189      7.2102228729743914      7.4852874018571001
   135   1      1.2807435523610442    0.087489656234147659      10.124642194917646
   136   1      3.1319698298612302      12.024855672034212       11.05811346261388
   137   1      3.4150978163029762      4.4865172294826978      9.9338378001168461
   138   1      6.1519233029746667      8.1681756098284328      7.1898292456848161
   139   1      8.6771070290147652      2.4534573589619422      1.6532600395714097
   140   1      11.747878524059159      2.1596268934436291     0.30610745185507621
   141   1       8.371519481237085      9.9648314630638826      0.4091766838940068
   142   1      3.3180443075378903        7.46384701163191      12.153186960229382
   143   1      4.8156110981947569      6.6077031091453771      2.7933290482758055
   144   1     0.48550961416362143      6.1351614920545234      10.478189396751088
   145   1      8.2333941639495869     0.37781918589922886      7.3690149896940609
   146   1      6.0993335175885868      7.7912838962944262      9.2779862246714107
   147   1      2.0612780347489323      6.1375210992974472      5.3047398790887268
   148   1      8.1333336868864343     0.44007161856159277       9.322430236442214
   149   1      1.9333431159759149     0.22527649492234039      1.8042945492152827
   150   1      2.2683505755824824     0.23134396084565001      6.8229254725099224
   151   1      10.321812440266104      12.123983082047372      5.7179253169655357
   152   1    0.049508416760670672     0.19069715197268727      1.1521873000314511
   153   1      12.377884409746525      4.9504144540057915      8.3493171227020397
   154   1      4.8400299566755898      6.3098705850240036      7.4173898573200638
   155   1   0.0094453986378195114    0.021869721683592514      4.5789131143264994
   156   1      12.104461924685994      1.7281808354790278        6.01878386043433
   157   1      9.8437417270857619      11.847919956049324      11.397943115547935
   158   1      6.2947908318097694      4.7497849339965921      12.376578078013516
   159   1      3.9049698723539734       8.236531470028801      2.2468468243360675
   160   1      11.380657933073595       3.381476885944664      3.0699335865563149
   161   1      11.115832571475499     0.23770489520879431      3.9528476589448407
   162   1      6.1075991702143186      5.9892814750395189      10.408728570550208
   163   1     0.10600910670231635      11.992783386180575      6.6407875225016086
   164   1      10.180980808159651      4.7448984843268267      9.2733983252185705
   165   1      8.4451139945703275      11.886547915608558     0.54673646131487597
   166   1      2.2819953839751217      6.0990086987960375      11.296939326608742
   167   1     0.40356063724737951      11.881037044001152      11.591967289512356
   168   1      8.2983436951813569      4.3341447379178231       7.008087415535269
   169   1      11.963441013874631      11.474829471657955      2.1963776516055464
   170   1      4.0130505228287623      6.6435250572845277     0.83413741110489437
   171   1      11.024088954785178      1.6228449526671809        12.3824870201328
   172   1      4.0666351387087509      11.968967928612416      8.1941917469533774
   173   1      12.347931756092168      5.4582668306240825      6.6458122111022826
   174   1      9.8603912183531399      5.5493827176787578      11.361237790990527
   175   1      6.6717672489945068     0.11004125034336465      11.255025815912578
   176   1      10.355699657914695      6.6042580815794238      3.6719492787518733
   177   1      4.3048158940647969      2.9513015746734803      1.4319740986312339
   178   1       1.932483908153708       3.378336578525154      9.2735908821456423
   179   1      2.7423121813605098      10.101551258439034      2.0291975018761406
   180   1      2.8174480215867641      5.2991037528666878       2.325293958269826
   181   1      9.4839799634610102    0.059921056743288487      11.401082449899873
   182   1      1.6682460159503429      7.3490805876748651     0.73436318345629203
   183   1      6.9469236034820119     0.55550275244504788      1.5787336949083102
   184   1      12.217848226036626      5.0970616860297548      12.165659865049467
   185   1     0.31844713959401694      6.1816026031086482      6.3885759616844391
   186   1      10.581943460995644      10.081044518433931      8.1164991588489492
   187   1      4.2897889257538875      4.4057468582820221       2.771542353418337
   188   1      9.4435334692605561      5.5173950004649432     0.80179617314851914
   189   1      12.249361105028088      6.9703387605503089      2.5408900267654828
   190   1      9.3906745924746069      7.4314081054855503      5.7138163359390637
   191   1      6.3350595274606958     0.61027988187383952      8.5678396723716101
   192   1      9.3335737947557913      1.3953275972282408      4.8250008701182772
   193   1      1.8728179097706987     0.95408694206406652      3.5134798225034407
   194   1      7.5312954492210746       11.05946529274555      8.4062086085718573
   195   1      10.053818646190791      3.8246219876906999      4.3835647927426908
   196   1      4.4594908916512424     0.39550187194179309      9.0079994934498124
   197   1      2.5406854289180503      9.7133718071756618      5.3399130174700389
   198   1      12.342137563340682      11.340879203118224      8.9571683208876909
   199   1      6.2480491317857725      4.8294652978109207      7.3512126767306381
   200   1      6.0874133516283226      1.9706520836620598     0.38873074180721778
   201   1      10.034672692576393     0.10123142906545049      8.2022593326717512
   202   1      2.2439653159189006      8.7400349608350467      7.4034441801365976
   203   1      3.9080169000602329      9.4400133190583961      11.956620895354646
   204   1      10.461509488703248      11.302140761940523      1.3122681792366107
   205   1      7.1037190083849602       11.60817485392055      11.042385293922191
   206   1      8.1309714794627759      1.3281573905214092      3.3995811521156463
   207   1      7.9525382189296954      3.7191732886365174      12.305888647704904
   208   1      7.8760090947130319      1.3927535040239825     0.29830387192000257
   209   1     0.12691082315785873      3.3695339591142144      12.117274003473193
   210   1      9.6750123485390365      7.6846790386506516       12.39350785892028
   211   1      7.3785559866128443      11.037459177627159      3.2875837316012975
   212   1      6.7147753368215346      8.6524443876233939     0.91503872469779401
   213   1      12.055262722165315      11.783770742569001      6.2905195452131437
   214   1       3.979437183313459      9.5728986398431548      3.5077391310509252
   215   1      10.585209850888537      1.8762845885382919      2.5283508988483909
   216   1      7.4337982787102126      2.1149833546808892      10.730728745678737
