(written by ASE)

216 atoms
1 atom types

0.0      11.989030160926356  xlo xhi
0.0      11.989030160926356  ylo yhi
0.0      11.989030160926356  zlo zhi

Atoms # atomic

     1   1      8.3753290336462687      9.4735280845078726      1.5883863522642041
     2   1      4.8788588813523086      9.9255391164791646        5.35036223342808
     3   1      1.4838364376989561      11.795979298373314      11.361756592633199
     4   1       9.368140657439298       2.852541710302039      9.1391975587140504
     5   1      5.8066233464153534      4.5332081868418141       4.933239560836336
     6   1       5.432016063471421      3.3691529189815084      2.1501584025815643
     7   1      10.392244328506576      6.5029277506581238     0.71128148984647821
     8   1       10.21194509523685      4.9674003291612836      9.4389995454116029
     9   1      10.616776834637134      8.7654459128665074      8.5631146979047728
    10   1      5.6133355391216364       5.116503902734868      6.6620894456719926
    11   1      6.9822798188325956      9.3917111645265354      9.3338277804272227
    12   1      2.1135261558492244      3.7645499757480123     0.21681385908453848
    13   1      3.8768993955551125      6.7230654873991664      8.5053526048822086
    14   1      5.5926348782087505      2.7779356088786082      9.8636156951238831
    15   1      7.3285722195963734      4.9551200182931767     0.60939617087325726
    16   1      1.7205081942887628      8.6786032084444411      9.5738748504244313
    17   1      6.1290743563942751      6.1191784605085688      1.4817466598015616
    18   1      7.9540687370114176      9.2506165310356891      7.4781396103509392
    19   1       2.201987098580716      8.2377628142330117       3.785498140265505
    20   1      6.3127099983116466    0.083446708214813842      5.2156695219977109
    21   1      11.120025772854664      1.8712517063126857      11.893114428243994
    22   1      10.151664576094088      7.4843148985008074      2.6201278985060603
    23   1      8.0154827951192349      7.9826900644407468      4.8725134891833379
    24   1      8.2516196099265677      11.234532985148984      5.0211346039956419
    25   1       1.098228385730456      7.3583041028967049      5.2305185655295707
    26   1       3.706724424356111      11.044993759802052       1.456315410370973
    27   1     0.59928138354189597      9.2172089119242209       8.234006242071354
    28   1       11.85655732592512      5.9642023123258214      7.0780705216571267
    29   1      9.9634570269792242       8.287609380609803      4.8439513825413618
    30   1      7.6640572048504696      11.624474030867514      3.2390511874611025
    31   1      2.8223524554470334      9.7034203305270594     0.36182508145611958
    32   1      1.3846532258798721       4.473176070727364      4.9092633284009626
    33   1      5.3779189381604899      7.7735743624926661      9.2101574681307739
    34   1      2.8489021826027088      1.6027411153906348      9.3169673696913389
    35   1      1.1365669248672077      5.6262472808370365      2.0105661946696132
    36   1      10.229769433891057      5.1111947626819179      7.6558092652242822
    37   1      1.7953241676591047      1.4706465749557307      11.957878359274902
    38   1       7.414765133456946      2.7827966124420929      10.216619564806242
    39   1      3.6938824364992748      5.6434873710292024      4.6033618491426687
    40   1      3.1786625924850647     0.47311052260210423      3.1289001700519825
    41   1       2.034255587524179       11.26909192122565      2.6234562959400489
    42   1      11.890758758802184      2.7067656555046917      2.7117320050627933
    43   1      9.5603031531219944     0.89750186120611353      4.1906528287975888
    44   1      4.1714768589309354     0.96298301051451884      10.683657922398353
    45   1      7.4137978347897313     0.42554039756019857      3.5922569992378506
    46   1     0.94216102477783203      3.4847863727863904      10.611667834593158
    47   1      8.8004801371270602      2.5150794351094077     0.41969195724648689
    48   1      11.825594434791356      8.9015202038377872      5.5947934575158209
    49   1     0.22421083951504719      9.9428846203088614      4.7182769487519636
    50   1      5.5674430417484864     0.32223446227380548        1.04931789996817
    51   1      5.3493290412024397      11.414484753854026      9.8318973548257755
    52   1      2.6396633602567299      5.6861542862218082      7.6082880503938917
    53   1      2.1867344516860885      6.3037041456213565      10.319323812412184
    54   1      2.5147769170619791      9.9482112334373873      7.6589958799858762
    55   1      4.0448708050859867      4.3702877015257515      8.5406158635071971
    56   1     0.31520508725087276      3.4563486116253901      1.0547363497889897
    57   1      5.2847359679057506       2.635601442099643      6.0920562961681552
    58   1      8.8017406820432047      1.3553862411963726      6.0913523419684354
    59   1      2.5841006695911535      7.0619784220903874      6.1813097621182278
    60   1      2.7172100032386215     0.67073002166067219      6.6173843239161334
    61   1      5.7311674924791562     0.32513046180180261      7.4935623380345184
    62   1      5.9712755799354937     0.80499918530159076      10.467885502283664
    63   1      8.3682777593085813      4.9823380338646226      5.0096938571992773
    64   1      4.3293874476061278      7.0671084710702017      0.9351584255318599
    65   1      5.5574881719217384      9.2332147962230309      7.2263436295228667
    66   1      9.4563147440406325      9.9390851307695236      5.7828128268228038
    67   1       7.644891248593531     0.65101180560955418      11.947778280978273
    68   1     0.52066885741771562      2.8207180315794878      3.9496486497197112
    69   1      11.631687345570771     0.23747430241425829      2.7137390724782655
    70   1      4.6687621156684509      7.3218681599860043      3.6545192302043232
    71   1      6.1382834687626158      7.5783938470166303      11.610903224408691
    72   1       6.533030108666134      9.9792320037669562      1.3754617591547358
    73   1       3.406193159092973      7.2461162322206745       11.65851915127856
    74   1      6.9824257354653962      6.2192792995112667      5.2967291781644308
    75   1     0.68886726487148697       8.211749076405507     0.99532426774805782
    76   1      10.207476042186061      3.2528282474734835      6.3626151962200188
    77   1      4.5144365598111147       8.726740792881392      11.937004578753385
    78   1      11.575017678220821     0.20700036184701884      9.3982028150386299
    79   1       10.02625933287479      11.085380814333757        11.0325651678592
    80   1      3.6804369686985998      1.4153656216220079      1.6789002528203225
    81   1      10.784086645934437      11.753571594121892      6.5301101360057432
    82   1        3.69518466484248      11.500568003210976      7.5925750734800541
    83   1      3.9688689204500691      8.0755707344431489      6.5562540505224982
    84   1      7.2493969308238437      4.8105382586934073      11.351000212029607
    85   1      3.5177873762342551       9.436893840334724      2.1463072152559599
    86   1      6.4869674231599301      11.527539410426069      6.0677624362488158
    87   1     0.74074539274231999      2.2281050436445429      8.6538600811243658
    88   1      8.4464887325473654      2.3155379210477962      2.4409144925051023
    89   1      11.553772201432279      4.6068390945714874     0.40193284568888465
    90   1      5.3712299061238031      10.667084368574528     0.11217031090722632
    91   1       3.331238750268962      3.1586985619331673      5.8696973113850666
    92   1      9.6323340819139993      4.5981072635062006      11.831559768644571
    93   1     0.41636480696125222      4.0286174042576528      7.5559826682060516
    94   1      1.6258974419629646      2.2014087534805626      1.9085911990652196
    95   1      9.5395681087784805     0.52115759470195933      9.5057714335880004
    96   1       2.588990512994592      5.3439085174808687      11.832301833351956
    97   1      6.2463145648673946       3.299226045885999      11.574702883757826
    98   1      3.9210339226592992      3.6945794362056095      3.5185343989600666
    99   1      9.3888263175349458      11.585901649552079     0.80165716477888993
   100   1       10.71895588373042      7.4887576702622445      11.175359197159924
   101   1     0.20075806500932786      8.1799159188477706       2.997198712003549
   102   1      10.856510039153672     0.32940045735636214     0.29903658549284184
   103   1      11.720444608656177      11.931196639575701      4.0166599505972869
   104   1       1.482871840940827      11.157229166674838      5.7855874153906628
   105   1      11.221229152748954      10.170965211192911      9.7043845228896668
   106   1      4.9412242349631743      5.2365253888773102      2.6973447828305814
   107   1      8.5751864514944245       5.729058136404614      1.9447326218875889
   108   1      7.3009060132597865      4.9235032284087943      3.5172039577835332
   109   1      1.1313589526399859      7.3886254006485004      7.1197105756592141
   110   1      9.7425885186704893      6.9715547300988154      8.8200441182520013
   111   1      8.9124527809632603      6.4941142311555637      4.0712623117805933
   112   1     0.10508092921168843    0.038058156468448706      7.9144640665733306
   113   1      7.1236465069288144      2.3685881517434004      7.0127945704650445
   114   1      7.9520628105897275        5.55885152074746      8.5880159268179561
   115   1      1.5836668406868708      2.3114647460742712      5.7650643338232994
   116   1    0.063211480907261294       9.386527272918789      10.297982001239498
   117   1      11.802501578835964      9.1994410402236912      3.3691742346386775
   118   1      11.648589883893152      11.861174777856762      9.1224605856513197
   119   1       7.941467543420238      7.6710257194922402      8.3216431204303305
   120   1      3.5163644429549783      4.8309651460899854     0.23536637062478286
   121   1      11.944583342297575      2.3804432763408401      9.3879915454893883
   122   1      9.1735583188052505      4.0255387433791752      1.9640330799079189
   123   1      10.728989222384673      5.2341388849772885       3.596702046679598
   124   1      6.3324311983193171      11.946799588501882      1.3907895832236949
   125   1      3.1491260793977291      11.864675044169626      9.7204500184603617
   126   1       7.833227125141824      9.1905075210108222      3.5289495903018206
   127   1      7.6028055556671807      7.3486936412295707      3.0298973770771744
   128   1      11.702106109075611      1.1833866258628962      6.8659404984969274
   129   1       7.165210196587176      9.6396557623752557      11.944957010739317
   130   1      11.951474579862596       6.907386591511794      8.7115668230892656
   131   1       3.996092189231419      1.8062789523571321      7.2045234485870706
   132   1    0.079095820282635163      5.3478011407571238      10.251378635907388
   133   1      2.8225097047851104      10.045053419305409      4.5406534990711194
   134   1      10.303927697813196       11.83449280847474      2.8072980145942807
   135   1      4.5013507020379784      11.572149017578152      11.517046527785062
   136   1      3.2083574398419192      11.954318798815978      5.6170883453225668
   137   1      3.3434425016573992      2.6774196767446159      11.930872422131923
   138   1      9.0538328296691297      2.8300668733993803      11.772644275702863
   139   1       1.879627705222241       11.28637600090884     0.58211076769292791
   140   1     0.89716979478167358      11.583938912618342      8.8022526215976189
   141   1      11.255938858185218      2.7112248511390495      4.6732844166635212
   142   1      9.1406905223477253      11.055075599823004      8.7275676555478388
   143   1       6.640970600145339      11.196335365280861      7.8553528442551004
   144   1      9.7833925676113065       5.835774923160062      5.9058336243033862
   145   1       9.756363640108475      9.9013418948567296      2.8134462615973788
   146   1      10.974627830776022      3.4362308980779623      10.933365295724624
   147   1      5.3903876517727092      4.6310842716357126      10.070001904044521
   148   1   0.0048189622457220829      5.6046944786415231    0.084256829294953553
   149   1      8.0243064894260456     0.51836534642178711     0.39153105044380981
   150   1      5.4502116630358763      1.5266683297116286      2.4542764113335975
   151   1      2.4871366028050215      9.9687515412672347      11.162454745459403
   152   1      11.554366171701426      9.3164818330719594      11.746806476671479
   153   1     0.45845124369730555      8.7919153181142953      6.2073446444283853
   154   1      2.0224038525842927     0.56510408750850138      4.8424859100649655
   155   1      8.0990224113372768      6.7468620622921396      10.501871276689883
   156   1      3.3000406865927197      4.3675827716598086      10.153349196882045
   157   1      7.5701953490516702      7.7112143764836887     0.49881554550468965
   158   1       11.92657386930559       4.780600038867151      11.528131654917532
   159   1      6.2750719513885844      2.1318112397073676      4.7316746390526552
   160   1      3.0337422712092961    0.036262289558779366       8.553551307162099
   161   1      3.1791793023921326      6.5138991870122718      2.1960343608585391
   162   1      9.1341301869034446      11.928481497535586      7.1704786283869995
   163   1      6.2798367974036804      7.5477325561953714       6.557287135223703
   164   1      11.182429303223932      10.428922420232935      4.8525570690898476
   165   1      3.9030890875170154      1.0776298026199542      5.2460741165157287
   166   1      8.8864664621497766      8.4485344741401569      9.9995583917013757
   167   1      1.0999844346543415     0.47885233245679865      2.0534766913432545
   168   1      10.682227650912221      9.2073226923693632     0.47136607060877983
   169   1      8.1324368539087093     0.42732219968210094      7.4566330928199687
   170   1      9.0059350259020992      8.2019268434378336      6.5158413895228158
   171   1      10.766848670004054      2.7792655722131818       1.312738688816409
   172   1      2.5391982570279241      7.3359898559575063     0.66605637069222257
   173   1      4.4046978254365481       10.94211440866766      3.7370201564559928
   174   1     0.91880716794983541      8.8755202408983909      11.926015405839099
   175   1      7.7966017375800369      4.6316529967640641      6.7327892531012994
   176   1      11.680214407765028      0.2538574388861648      11.476966777956184
   177   1      6.7212215677667499      2.3012837564266899    0.084845236356239917
   178   1      9.2766852765057592      3.0493081005815488       4.315962598748083
   179   1      2.1026245376269017     0.70833559432134208     0.44293896170572317
   180   1      5.3751340344980445       8.661540015578824      2.4890927999998969
   181   1      8.5813642034159461      8.4971289177151732      11.952502088585767
   182   1       6.707652805756628      11.295057969514012      11.561294275327027
   183   1     0.22599811531812838       10.80560267696687      2.2000023034114817
   184   1      11.673355803106002      10.325116444664014      7.0944071592466873
   185   1       10.87880234904603      3.2703611143732272      8.0098070731488402
   186   1      1.2434185673564981      6.8826403109251952      11.817731906922297
   187   1      6.5608283948404233      4.3690299652412001      8.7139112469045816
   188   1       8.457279501471465      11.915371693696736      11.280231795661127
   189   1      4.9754786877317558      1.9164394523835695     0.19296381615110628
   190   1      2.5897781219234388      4.8515050566294793      3.3072640078741582
   191   1      7.3750642680204583       10.98177002535674     0.12852368826660515
   192   1     0.58801791694217942     0.26749879920603087      3.8161237942603843
   193   1      10.553106318614924    0.021448396675462236      5.4511069088161141
   194   1      5.3677410796546132      5.2622444602110594     0.11689302503280768
   195   1      11.089714811369378      10.373389130008377      1.7774289676691555
   196   1      11.754915189459011      7.2118503118678081       3.321308387495109
   197   1      5.7933745707875399      8.4613007542758272       5.059937042932722
   198   1     0.14028304159135391       1.197519233697814     0.13884249907889454
   199   1     0.83220442488683743     0.56676128014389704      6.2552838907785846
   200   1      4.0564914998045687      9.0789696963502458      8.3973720321742196
   201   1      10.415402966874606     0.10243843240530853      7.6892989572181172
   202   1      9.4376242889322715      4.5458530107330768    0.013341731652093335
   203   1      4.8051376005878748      6.0905708658251099      11.663164364100133
   204   1    0.083708389125487268      1.4509138956231555       10.66563031434732
   205   1      5.5446479356308966       8.420851006113681    0.011146520188863866
   206   1      6.1638816733674835       10.27613268254027      3.0817748525871376
   207   1      2.5487196338700024   0.0094167563801679389      10.498619561401565
   208   1      1.0081603502548964       5.989242453630311      8.6664587803804132
   209   1      11.946580733210101      11.520177889367007     0.34022695996856062
   210   1      2.0315412654096594      3.9441791965150577      8.9644014722301737
   211   1      6.1914620849362585      6.4490820640795361      10.039258701679902
   212   1      7.7492361833336929      6.5250312427974775      6.8852625375345875
   213   1     0.17247138769583714      7.5684745419778841      9.1893372915553471
   214   1      11.433445212278738      6.8660993215817196      5.5274151194629475
   215   1      11.972876486562374      11.830721076615546      11.178939960079857
   216   1      2.3735445048292072      2.3976733101151484      3.5154076309786073
