(written by ASE)

216 atoms
1 atom types

0.0      11.614124869223168  xlo xhi
0.0      11.614124869223168  ylo yhi
0.0      11.614124869223168  zlo zhi

Atoms # atomic

     1   1       8.370534120887525      2.6232849083084324      2.7124754747761686
     2   1      11.032620454082513      2.7192544056188872      8.8446671251433528
     3   1      3.9295504152722667      8.5228011697296644      10.967841977528291
     4   1     0.84426323484016441      10.126189925682123      7.0989680411107878
     5   1       1.465001490749817      5.3117245637311399       3.672767142335196
     6   1      3.2310880599163943      4.6786931496011412      6.8966611628198748
     7   1      11.075928718176225      10.895755980437631      8.4567728666630835
     8   1      6.3079564297151736     0.35352628839169825     0.58848440853954875
     9   1      8.7259786863003139      10.448481724785099      2.1519177141507271
    10   1      8.6149890751226774      5.7391157813952871      8.2550876934116264
    11   1      8.8716027646330087     0.78559657365871594      11.199752739890942
    12   1      2.0180995399149646      2.7388767919028774      10.742396654852492
    13   1      6.1025314957961392      5.3525567046771778      7.7908918982713971
    14   1      5.6163430603406823      11.264035433362158      7.4214305149747917
    15   1      11.036111278303737      2.5414208977837869      10.980196405847671
    16   1      7.2288476245571518      7.7304955723760891      2.6835912025091448
    17   1      4.8669384618634774      6.5469894634139898      11.081239299332388
    18   1      1.8371106364790963      6.4543260181097999      11.553013205915285
    19   1      8.5494943826186791       3.472058647026214      11.452761896248973
    20   1      11.025335471875559      8.2800987687659262     0.90059838393831326
    21   1      7.6960912373707755      4.3015716602843792      5.4610232030195522
    22   1     0.96504497057425132      5.3681648915225928     0.61496565393552116
    23   1      2.3851652681523032      1.8341021698422406       5.654666372298915
    24   1      5.4722585960775127      11.027936823869011      3.5875019219159223
    25   1      9.1643549972527083      10.061564228700879      10.950803090693135
    26   1      2.5308885021390157      7.5331169634574193      2.7545119825157194
    27   1      5.2110836808949763       11.27628687918552      10.470154266594657
    28   1      11.365819229322772      9.4219855471414409      10.346134205367482
    29   1      9.4275898498278625      2.6883752529251801      7.0120466793463798
    30   1      7.2088728343192452      9.9057084291027042      3.5903699012848658
    31   1      5.3083411447948006      5.2821343916356787      2.7942998622859858
    32   1      9.3725339522911391      9.6207501279196102      4.7813603149823649
    33   1      9.6653993404901328      5.5457408827485803      1.8004762057569517
    34   1      5.6126715750799807      7.6619774930157822      9.1429718828223319
    35   1      2.8785868033331403      1.9409592550599122      8.3512574113123712
    36   1      3.4954915807033307      10.524251500997313      8.1880343244728326
    37   1      5.6155938516632267     0.60379755644059141      6.9431211984706316
    38   1      5.8410297049348019      2.7641141917571153      5.0353528670719303
    39   1      8.8559117303069339      5.5994700630211431      6.3373841433059264
    40   1      8.9437772406405447     0.58392613503371915      2.0107253688880187
    41   1      4.1105802845617889      4.7211827246028317      8.5873929213593598
    42   1     0.40361125675475673     0.24883270582416106      4.9321881552125051
    43   1       2.850594550974805      8.9872889695320097    0.026476439265999685
    44   1      1.9966667338169515      11.387314863229861      4.3814118968094631
    45   1      11.240497392184743      4.6555608000840607     0.32460399426461362
    46   1      8.9036351518721339      7.3530730509013065      4.2356008657593742
    47   1      0.7784733868808974     0.13549355462427221      10.041316496380718
    48   1      3.9969263912476602      2.7051052859525053      0.5318686480943402
    49   1      8.3010466107431036      3.9864351409603289      7.6207206483180947
    50   1      8.7536387287911204      9.9424547922024065      7.1305013116864115
    51   1      6.2152378472826584      10.720316511508603     0.88202261304295582
    52   1     0.94701705510789691      7.3640137013390046       3.633172917787189
    53   1      11.206923585464832      11.286839763591132       10.78072172841236
    54   1        5.83761396130304      7.2081136421181942      5.2788498676530375
    55   1      5.9265158289385864      3.4081382503405591       11.41351717092887
    56   1      4.3217004329710775     0.56240766981121426      2.6873428839722449
    57   1      11.404278615754089       11.20316160716227     0.52077477715394183
    58   1      3.8050401996085967      8.3815100077099114      4.9929839879764613
    59   1     0.48058396842841572      8.4986674731004861      5.5083526040559114
    60   1        6.70777596554837      6.6032338562839437      10.010724039388096
    61   1      10.526772542774349      1.3566956109864932      2.4679820955188174
    62   1      7.1940552443462105      11.080915043547993      11.605488519336827
    63   1      8.6868707979659678       5.426124764564527      11.307049922982792
    64   1      4.9414804606694043      2.6263666067872649      6.5774762448439841
    65   1      6.7060024796280757      9.7710140272859203      8.0278676178942625
    66   1      3.8461022520494557      10.015904552189888      3.2064928400516148
    67   1       6.015117660544683      6.6544033426908067      1.0462774921388549
    68   1      7.7267794596853419      2.3540028955690118      5.1335144123703751
    69   1      4.2557908434643643      6.2033415153165112      1.6045665813851606
    70   1      1.0879445135705266      1.5237044042528922       2.393240295630068
    71   1      10.860721992226608       2.190524862487687      0.1058622380797468
    72   1      2.0972060490121232      7.6614009127082694      9.5251530671666949
    73   1     0.63936997551686692      9.6151738259155586     0.13908300316311797
    74   1     0.45909883361997778      3.7728342812658915      10.604215425779062
    75   1     0.86947719510057875      3.6565120334969299      2.1016843033618269
    76   1      3.6611387104364943      5.8179151237871345      3.2774221459624475
    77   1      11.460808944536835      2.9893259668746803       3.886937849548834
    78   1       6.366128878506367      3.2921813929801131      1.6961353095931593
    79   1      2.2533817780860441      9.8182226886366415      5.5784237311206661
    80   1     0.97120616351177369      9.0734237443904533      11.006031629105449
    81   1      10.266433867586709      6.6734287478436718      9.9145973840267203
    82   1      8.3817173764188659     0.66479125020342533      7.8038481665521795
    83   1      8.2301840675943971      4.4212222369235699       9.523264313269312
    84   1      2.1374140606152734    0.069190580064713611      3.3547096186807539
    85   1      8.1165137218044325      7.5270253582607491      8.2047226693228676
    86   1      5.0768523865522805       8.584163540885676      2.1490372974375065
    87   1      2.5185496154643769      11.269086175859172      11.390778148118864
    88   1      2.2364607067761582      6.6194752741020331       5.992960223603033
    89   1      1.1066402387672587      2.2263041203372094      9.2628991318274707
    90   1      8.2399564367504645      8.2015166189447317      10.039964972737861
    91   1      6.8331602992446561      2.5684456221461005      8.3950637106425585
    92   1      9.7197369066317183      2.8891661347051674      5.0847363923730029
    93   1       9.972168524998704      5.7416586212895435       3.914818479620537
    94   1      9.2807702695961254      3.3932819690626221     0.10401664153162724
    95   1      9.0495500020249455      10.690754478101594      8.7033329500941949
    96   1      10.085430354647073      11.538864978960307      2.8349887718577684
    97   1      4.6997271423759219      1.7621716730954975      8.4238512379830386
    98   1      3.8938026431136481      4.0356329570403311      10.747745836557037
    99   1      8.9495805908775381      11.589370019658141     0.47913498301101648
   100   1      10.946551111455477      6.2120169494053998      8.3004061174959833
   101   1      6.3867426707264467      1.2843834224494364      2.1944181280889001
   102   1      10.609874159170531     0.24370534082438988      8.5711214474270481
   103   1     0.64268141674479784      2.9355379855846424      4.1321562476008413
   104   1      5.3888198761100243      10.217976395045458      5.7125756804136136
   105   1      5.3585202592501266      8.4196300013601739      7.1674768073252197
   106   1      2.5605286834771133      11.491623846872482       2.059748626533922
   107   1     0.85031349405435397      11.342241779024283     0.42870641725968706
   108   1     0.40398685654559391      1.4707824268505931     0.23198840083301733
   109   1      6.1906533021410777     0.45182634700756336      10.620985859941094
   110   1      2.0644872161727625     0.30757298637814923      8.4708759314048123
   111   1      9.2938782644940385       1.249321501854233      9.2894273173197135
   112   1      10.017466048921815      8.3508236909541971      8.5583924351654108
   113   1      11.139462652054755      5.0739551750011955      9.7541510356923045
   114   1      1.4063456922485378      5.7901719071847131      7.9484222278067742
   115   1      7.5075873481541313     0.81902151429506997      6.2706705620435708
   116   1      3.1372498724845341      3.4708721369528224       3.886531666147846
   117   1     0.08064919486099098       5.571823958692419      9.8519086089726642
   118   1      3.2074027959737976      5.9716850417431813      10.157699330633033
   119   1      1.6682088490992391      0.1132754739988749       6.422076418433857
   120   1      1.9616299444364214        11.1605255061483      9.1283787625844717
   121   1      5.1241408466419127       4.792712041995391    0.022172360902136437
   122   1      1.6873167507402669      3.9144382366644144      5.6059227260135049
   123   1      11.127101730528492      8.5880825586610445      4.7963138662712366
   124   1      8.0935682950673709      1.7414965654023626     0.79459978078225424
   125   1      6.4318807865287324      5.0340021207120138       4.385631693037686
   126   1      11.516838185677759      9.9508454191990072       1.778614044562365
   127   1      3.8350824621666577    0.020816726666689215      4.4153035851903004
   128   1       5.334810154048891      8.3278357759521011      3.9934310720195589
   129   1      10.306883388878928     0.28438083121117735      4.8122492733927587
   130   1      2.8659325050767372      8.8867448726496896      7.1692955374241727
   131   1      11.395841483181442      1.7747671766466917      6.2307453982591658
   132   1      2.7788700367368651      4.3148875059990077      1.3171639979569707
   133   1      4.5490579195900231      6.8506319159349305      7.3362445011801301
   134   1     0.86587186082072765      7.4517653526708401      1.0155647718298619
   135   1      8.2611520632985052      6.2716821305413406       0.909318690224034
   136   1      2.9540184423405766      11.477160826769284      6.6293809439307561
   137   1      11.442370464210143     0.15583354518280193       10.23649904447616
   138   1      11.125123645410259      7.2201405589905505      2.6688790116525047
   139   1      8.8486607271000146      8.2786843832740917      1.4200041099103933
   140   1      6.2000368560217396    0.070437653938375533      5.1665509232813367
   141   1      1.3240001145956972       3.614715209048712       7.406234802170494
   142   1      7.4480822141422856       5.138557259832635      2.7679999847333199
   143   1      7.5095594735123115      11.314267918164065      9.8178753509285137
   144   1     0.69536770728301145      8.4256676784325002       7.579857114688382
   145   1      3.8114271953411838     0.31110322725077905       9.507392901486579
   146   1       11.15563778462162      6.5024884600554245      5.3172417084526638
   147   1      9.9440251518540386      7.4886986106365638      6.3959992871195634
   148   1      1.1477034762529723      10.249915817824078      2.0899437395081857
   149   1      11.263361370424551      10.984869538386796      4.7809791325256352
   150   1      5.2790870881523775      2.5942248771327741      3.3842577897630073
   151   1     0.27485989735054656      9.1212406717665875      3.5732207149238175
   152   1      10.421707067643823       9.396989051705912      6.8668051094673723
   153   1     0.50814917197073017     0.95635418083785639      7.6599175834956643
   154   1      2.7692073013747822      6.6149603140186493     0.71266077208283807
   155   1      2.0274240268804418       2.464843881453668      1.1097997491565679
   156   1      11.022172950722435      3.7042864314553183      6.8853253455985541
   157   1      4.0563005980323572      11.276904262522114     0.14471037559588512
   158   1      9.4120169479422646      9.5852946525477964     0.24053833372231093
   159   1      6.7967268378227743      4.8497869855172118     0.62690888319567373
   160   1      3.7301535734536277      1.4456286786035923      11.304817052895254
   161   1      10.508860493581832      3.6516559495427869      2.5370786673028807
   162   1     0.39772424054150135      6.0246691893129842      6.3820245678495464
   163   1      6.0898839457262923      9.1060768674464416      10.184176113141168
   164   1      3.2544541108888589      1.0246920475266716     0.97991092498445032
   165   1      5.6524672331328372      4.5870517988864181       6.096857687112494
   166   1      4.7092304160260614      8.4934538797499961     0.22018724898303979
   167   1      1.6681242312517113      9.5124255055630034      8.5979162405082246
   168   1     0.55955544236276433      10.687920699707993      10.164539011375432
   169   1      7.5004826251127685      10.762849679096437      6.1936331520700945
   170   1       3.844768635133951      5.8296030224054913      5.1439398906803229
   171   1      11.392147005194284      4.4462414554176615      4.9293370778201577
   172   1      7.9981533453674443      8.6787564061372215      5.5214020271676771
   173   1      7.1735123335820319       11.61253470650081      3.0830577317259968
   174   1      3.6376467759555662     0.56426608570554959      6.8945382381196278
   175   1      9.0406480670530431     0.07578321224506078     0.20813719966661026
   176   1        7.70597702583688      9.7784271102537872     0.81611657903464019
   177   1      7.6145882158810503      2.2340296277888267      10.462110447257464
   178   1       2.924740361289365      1.6521092511268662      2.8381433154528684
   179   1      3.7796745118934378      8.8004271870705999        8.92159979977564
   180   1      10.895007337277827    0.034840260334500564      1.2133140111740435
   181   1      7.0342281574842653      6.8614266636720984      6.9597169843431992
   182   1      9.8569389640449288      8.8444088500937461      2.9641933271081866
   183   1      5.9584457333622511      4.1763862209539919      9.1320569102251188
   184   1      10.745263319576653      4.9767200406066667       11.61230793232979
   185   1    0.049735289371002106      2.8221526245429454      5.8243459409044718
   186   1     0.10283221974778325       7.170990831335299      9.0370124351612926
   187   1      3.8742507706309666      11.467420950635871      5.0012362916279702
   188   1      8.1322068596590178     0.56524364697938434      4.2483750638578046
   189   1     0.47018645231176215      3.6319044549593924     0.13003997376146814
   190   1      5.7587952349570353     0.22088103411572249      8.7604698581336695
   191   1      9.2910216216221109       11.19362510825005      6.0031348855724476
   192   1      7.4021228605998486     0.18278506700083769      9.3854309335891948
   193   1      7.1428104411244551      8.0360785050543502     0.71832359532364876
   194   1      10.384663307597014     0.17093078048079596      6.6209928304533605
   195   1      10.203886493564674      6.6049711175219326     0.22754304353878582
   196   1      1.0805127189919925       1.245254240599641      11.592871670234603
   197   1      6.4646505787768076      7.7837420392281107      11.315025084028113
   198   1      1.9929374748850546      4.5758522613815398      9.6641428219816863
   199   1     0.61455048305357007      11.432116699406043      5.6494679492662945
   200   1      11.434459385440265     0.08811983033042517      3.3848755545423974
   201   1      6.4126056826955145      5.6540893522166966      11.483308280378433
   202   1      9.6575024430545238      7.7605140102251315      11.501169467018896
   203   1     0.23359472343741072      7.1085256390598035       10.79629706410649
   204   1      4.4058265923246367      11.560106355596394       2.014530523832248
   205   1      7.2141905639252846      3.3912869456564758      3.8187153495594557
   206   1      3.9997638762282341      9.7271209117147102      1.2847757301537477
   207   1     0.02770665205216365      4.5953297176897205      4.6306829886426053
   208   1      11.486766034621922      6.6366776578611688       11.35075522353748
   209   1      11.542591645804425      8.0602086217479521      7.5500267375401542
   210   1      4.2197370617008962      1.8481217057689083      5.0454089676324561
   211   1      3.8406079880849191      3.6147530284170037       5.584011521087926
   212   1     0.37297831650713076      11.516784065060408      8.3624350973909287
   213   1       2.246840878451339         9.2743713736453      3.1273120595045509
   214   1      9.5599193028601093      2.9608926265085289      9.8183785996883017
   215   1      11.409166421283214      5.1844293766027372      2.6989593723522622
   216   1      1.7528490700225616     0.16975475660321765     0.49210958628446455
