(written by ASE)

216 atoms
1 atom types

0.0      11.282109332773016  xlo xhi
0.0      11.282109332773016  ylo yhi
0.0      11.282109332773016  zlo zhi

Atoms # atomic

     1   1      5.8786845332393387      10.840802015624242      3.6800654110330675
     2   1      4.9508518743284995       9.125317600382477      4.4758184876463769
     3   1      7.2700441044848718       10.69422613354898      5.8719135691035049
     4   1      1.9549506443388613      6.1336949999228327      4.4332257538623105
     5   1      9.0078940974092951      3.6676178599047993       4.032364053833712
     6   1      1.6871913702411461      1.7682486462751235     0.34497295074059747
     7   1      3.9228326563758142       3.926239534522395      2.4630461116732114
     8   1      4.3766512216809037      4.3648043964382701      9.1779151865783728
     9   1      3.1597977798271644      5.0118073976118982      10.761288759962973
    10   1     0.52004952496508206      9.2262304273234026      1.2656787672717198
    11   1       5.309105006763768      1.9139026948515176      6.1136808958990292
    12   1     0.56315055323622343      4.4827347537137223      3.6678017040532223
    13   1      10.496572539151128      2.0597555988934557      2.5804341224498448
    14   1     0.70833499210222461     0.19229093890277629      4.6649058000108266
    15   1      2.8757657363589075      8.6168726236393685      3.2384112359702439
    16   1      4.3007209607304899      9.1862946779945123      1.4302299440757322
    17   1      3.6816889737079728     0.92313757997225743      3.9128870895822234
    18   1      11.007767021338504      10.990740338114733      1.3754705920227508
    19   1      5.6676389159511515      1.6759751221105392      1.9428452653388781
    20   1      7.8847271251524473      1.5440992534315756     0.80915949689300137
    21   1      6.4709666907842207      2.6649472736411477       10.02666439507845
    22   1      2.3590830370038454      3.6581465066623045      9.8065411369327506
    23   1        2.39867153467539      2.9998108027449835      3.1537666624042573
    24   1       10.83011155726226      2.9387668748174169      4.8534326074037395
    25   1      2.9134419288192608      10.948829850442619     0.19392456262712918
    26   1      9.9229948736968954      3.5078213211920235      8.3137694125648469
    27   1      9.5391874810349702      8.3033093873872588      7.5021879903479674
    28   1      3.1874210323253291      7.9156168956580997      9.5029230244959084
    29   1      6.2067265805646734      6.7221656829784582      1.6065092210592644
    30   1      2.0092697012012124      10.582153538945876      9.6832493795404204
    31   1      3.3871377982681561      1.4443024067374741      1.8067099715014252
    32   1      4.8354023135085065      8.6412199226362194       10.62878764629008
    33   1      8.2836889073438158      6.4269314203354071      7.6969845984847485
    34   1     0.78246656087850686       5.487289613329545      9.8753470869674747
    35   1      6.6782478813560955      6.9995296874324628      9.7683299681704021
    36   1      4.3227448136462607     0.25610600188444699      10.467207711099777
    37   1      7.8327335535636946      5.2137706792212786      6.4195824756103104
    38   1      9.5762887506398773      3.2312139634105854      1.5406364788288445
    39   1      6.5728266809247868      10.430036435916435      7.5072264688148884
    40   1     0.76927155112957479      9.1657450085817462      7.2711127700664093
    41   1      11.273753133870049      8.2786626725682222     0.43981825665763863
    42   1      11.037921352120962     0.41784925540483586      10.419290150029775
    43   1      9.8704847180126194      5.1198203672938236      9.2355174244793439
    44   1      8.4718018272307809      8.0654096190197357      10.670531638040499
    45   1      5.3636566876461016     0.06287094464899308      1.2469597260362526
    46   1      6.7096644055825942      4.6573276435274753      4.8672172822502748
    47   1      9.8172439573270669      4.8656897053139625      5.2465739542228533
    48   1      7.2839959191993762      4.4477517021203683      10.733980177559225
    49   1      8.2192784535636552      3.4182574563216614      6.0871941310660418
    50   1     0.18690863816756012     0.04401870755030015      1.6022922616890189
    51   1      4.9716585168281373      4.4443570812066744      5.8523199112980659
    52   1      6.4213503513010215      9.8622627376260663      1.7945994398573322
    53   1      3.5686165811501609     0.78760142160077873      7.9982986627606936
    54   1      9.8527522355397803      9.0326779093296921      2.6733463311808721
    55   1      7.7606182135201189      10.835011830701282      3.7574943182477689
    56   1      4.4284044982198942      2.8530418171924343      0.6125110578098214
    57   1      2.8728085279195814      5.4635001846595381       8.902055862776292
    58   1      10.064118571607015       2.246186666417775      10.720805257462445
    59   1      10.704467463150312      7.9905131229021533      4.7191983586377395
    60   1      6.6511623343624775       9.195966722915129      3.6638038271388309
    61   1      7.9634581661689738       1.701443513738816      8.1080610442346845
    62   1      2.4044631649751569       0.930535980606088      10.845728852560617
    63   1      6.2469405815448349     0.50885916786996177      11.161683844577304
    64   1      1.8005017512321324      10.948426204723811      3.4688414055040706
    65   1      3.5311083544431918       5.556500656887235     0.40819854225985025
    66   1      6.3944155816391852      2.3718914317286588      3.6739338161143267
    67   1      9.0138377249941133      9.1694281065014351      8.9497809082870088
    68   1      10.842581910548944      10.879099902313266      10.263482584888143
    69   1      6.2581691395563626      0.1376923953043922      9.0139535332766503
    70   1    0.048568493506162914       3.092483491845476      9.1982667743156092
    71   1      1.4871639769759035      3.3711527946196149      6.0001562269612529
    72   1      10.127496309763311      7.8839349593950452      9.8296676404068393
    73   1      7.4476062375901275      10.141051839143426      11.119206216655941
    74   1      6.4206133501975744      8.3500492746684074      8.2243309519696144
    75   1      10.275571847979029      5.6653480865185006      2.4450098412605814
    76   1      9.6425695370189661      6.3740776941287223      10.724314566315723
    77   1      3.9874000085833532      6.8937423577994421        7.31050141554649
    78   1      4.1517414930670729       2.175792771885523      9.5183846964256595
    79   1        8.77822675612396     0.50789381718614446      2.1723743321827804
    80   1      9.9198854158385306      10.951036940394212      7.1826550380583836
    81   1      7.6006395313005637      7.5262369814703636      5.8970315797645609
    82   1     0.66167532872416313      6.5948773855320786       2.434670150199342
    83   1      9.2830983936686806      4.5624317155967908     0.39371431173356652
    84   1      9.4809611115034969      11.237211097795663      9.1883548531268904
    85   1      3.6215363406114789      7.4125805429924503      1.9769251902005054
    86   1      10.650652530263569    0.038726244124914967      5.1285506878876461
    87   1      5.5761407310622317      5.9003467835618668      7.5758314433798981
    88   1      4.6248283566674386      6.1443976148642152      2.6758262492500102
    89   1      10.991221529475308      3.8316783598601671      10.242762496165962
    90   1      5.2954877289235398      6.1035346239098542      5.2010224852020155
    91   1      4.2677352515206541      9.5479455010903127      7.7240718178865126
    92   1      10.824867629784558      9.2282197845082976      6.1807627832612102
    93   1        6.33036290841408      7.2787771765734481      3.4584765751794175
    94   1      3.7079293853070809      3.6433989318022033       7.642771270971906
    95   1      10.530586307702817     0.56587742034149402      8.0560098628364827
    96   1      3.4248948652096134      8.2595085916358126      6.2044844578287037
    97   1     0.21407126000047247       8.730506580815895      4.1362571354228699
    98   1      1.9714068402345226       5.250631575007362      1.1803083778186128
    99   1       0.292479901736383      1.7491344650847382      5.4711674024282084
   100   1      7.5038747290630647      1.1055883055548441      5.4265773557561214
   101   1      1.4878158022177344      1.2598212087368938      9.3258360655245891
   102   1      9.7251330680887538     0.51065995387051155    0.069953129194189653
   103   1     0.81995737017575554      9.0555029099636286      9.1130028552532742
   104   1      10.995125540170736      5.8385889786482652      7.7544661875850736
   105   1     0.43863364886245532      1.1147525343031857      11.217348132604185
   106   1      6.6510048662882593      4.0414404348745236     0.59947039234669697
   107   1     0.93713816310625453      7.2617034022425679      7.1491450331631423
   108   1      11.195762485762344      3.0849708493318002       6.955441586435132
   109   1      1.5617554315478843      9.0295316698785708      10.816120244191245
   110   1      2.7189891506601382      8.6150093132628491      7.8260993769489309
   111   1      5.7227955341117722     0.28024059775232735      3.8879854665973785
   112   1      7.9516753133843725       7.002228122434925      1.2204593953304401
   113   1      9.6896764290605422      1.3871997742844406      4.0243245631395661
   114   1      4.6120457351050757       10.61139686120937      10.109528310595181
   115   1      5.8978957860986165      1.2789985218719246      7.7237891682628419
   116   1     0.38987046476011283      10.023643772141565      5.3503310188213264
   117   1      1.8048253212999863      7.4102534338329917     0.33957087454842255
   118   1      10.923744312470427       7.254660810026782      1.9077110195749356
   119   1      3.9805272899554907     0.66187543683441952      5.9274681100067497
   120   1      8.4115925947055761     0.47629329818742216      6.9393122255539392
   121   1      8.7709805335375197       9.611974221792563      5.2526718104262482
   122   1     0.63843084914534565      2.8603186261800637      11.084011226463238
   123   1    0.091059001307006754      3.5753232358665024      7.0969528723690534
   124   1      7.7412100860850455      3.8381939779204171      2.0827931646380669
   125   1     0.65036577921942851      3.7777927001666396      1.3955479279689786
   126   1      2.2853558564264493      4.9578080303114849      6.7843383429999973
   127   1     0.92197737240774214       11.22698740811698      7.2848383388418068
   128   1      2.7878091689666329      4.3192967784393481      4.9764192577279012
   129   1     0.82288689021339922      1.8566896835797355      2.1590374150190144
   130   1      1.9870994793170584      1.3838233052946516      6.1600481976411263
   131   1      4.8734073934101119      8.1966473870203185  0.00088595364895531806
   132   1      3.2987977187437556      9.9852526760446185      4.9220054939060427
   133   1      5.7003649400761187      9.7248858428790026      5.9723079779058974
   134   1      1.8589422325474103     0.47012485443999835      3.2161202060673517
   135   1       4.476499322749909      7.3329026835880331      4.1338441383046698
   136   1      4.8529444445483856       7.221795344182488      9.5442419364163946
   137   1      7.1517682894442265      3.3133201016613856      8.2696292173611088
   138   1      7.8362653098275237        8.93940025139654      2.2518576645957866
   139   1      3.1603842717990172      10.693617141807941      2.3285437917715526
   140   1      0.1399648192970297      6.9900098070946957      4.8135988478186524
   141   1      9.9191206335405369      7.1026617623548782      6.1578675376216694
   142   1      2.8554967075851359      10.598530933525113      8.0028699709191731
   143   1      10.890754240676571      6.0965633189325539       4.089645659705849
   144   1      9.1013750152943214      10.754464818391799     0.80142026043966974
   145   1      4.5514239248589545      3.7419053118288113       4.259451015754399
   146   1       10.76288367930016      9.8987941199028668      4.2250208772368589
   147   1      1.6455173090330018      7.8431812289612743      5.2742119964128733
   148   1      4.1360731535444124      2.9271632852961216      11.174298992704292
   149   1      11.044274479277403     0.14130811608819657      2.0551822455325608
   150   1        6.15087256990717      5.4884867910972828      3.4292685437833033
   151   1      9.2646438946560838      8.3538858737395287     0.36207523699964755
   152   1      7.6943458036569918     0.92248716037743428       9.903349874743677
   153   1      11.112298452074375      3.1255314411391288      0.0485629885629313
   154   1      8.2685714257980436      6.5161576624575259      4.2234523477351331
   155   1      11.229578321195161      9.0416219341321025      8.9343914400001321
   156   1      0.4349038712515288      10.406348231263964      10.952712688983416
   157   1     0.18255150657642444      5.2515051889529483      5.4412264696421415
   158   1      8.4030662809031789       2.206503525303058      2.8740520421483078
   159   1      9.1370464524774277      3.7964608583563315      10.467803496094286
   160   1      5.3497790417904527      11.203721271798104      1.1570205370621063
   161   1      7.0687176627130128      10.403814762165764     0.12920339506611364
   162   1      10.254453174492877      6.0335343285514416      0.3422540557788547
   163   1      1.8039980039468895      11.060316169553824      5.7708880589009688
   164   1      5.3830023587750411      4.9777914245022705      11.016111390673755
   165   1      2.1633980749841424      6.6190725081369042      10.819233232192001
   166   1     0.56559071987992349      1.9839937487992647      7.8229106957828956
   167   1       6.995545015666675      7.9907888577658444    0.016670892646946604
   168   1      1.1380672578196926       7.269300186392301      9.4995926940640008
   169   1      9.0456053326243371      0.5068198727644716      10.975172932944863
   170   1      7.7423706092310312     0.19056490487252542      3.9244393844900745
   171   1      4.1404561462346923     0.85079828187657747     0.10317053078724153
   172   1      5.8758640546538263      3.8999207945045371      2.5423998285201463
   173   1      5.9835905634568132      1.7027215405983274     0.19609193572326861
   174   1     0.26426599889808794       10.68446510843677      2.4771144915716978
   175   1        9.78153505759804       11.26077290057388      3.6199819462709129
   176   1     0.44657104691510052     0.15818928801834639       6.929347766252512
   177   1      2.5509726062057916       3.381103334736649     0.65446825353013705
   178   1      4.7731835074021163      11.231894774988861      7.5241848272593979
   179   1      3.0439098809131235      2.1727248645757942       4.991643262666277
   180   1     0.02805163178338969      6.0722135701951503      0.7976922655614177
   181   1     0.24512900569365151      10.846059338948676      8.9768303948430379
   182   1      11.276549894197929      3.6152551089952372      2.1209163335300483
   183   1      5.8692701150594555      7.4994930489676808      6.2882609039144262
   184   1      6.4858893550538683      11.179591879295852      9.5543138996801797
   185   1      7.6244974450566749      5.5184947032089875       9.262101543073312
   186   1      8.5012106388741451      5.3276396573889944      2.8570837617804279
   187   1      6.0026752000151875      9.4297657399683885      9.5430754663352602
   188   1      6.7819744714792849      2.7322478022439398      5.3608906358370172
   189   1      1.6887897885011296      3.4698409554080714      8.0838896685284585
   190   1     0.54911323168135728      5.2957002940905884      7.4512672175804235
   191   1      1.1477056685170688      11.099860227742482     0.53969851955404158
   192   1      9.2646008873478056      10.409607835113727      11.116075783933555
   193   1     0.14592765627150184       7.995947107208619      11.039928563764203
   194   1      3.4897072378008476      5.2361199047692848      3.6600565534786753
   195   1      7.6111918322446401      11.238503789015155      1.7554535107309694
   196   1      2.4438503221625902      6.2752866946132491      2.6577888471066959
   197   1      0.1841976840184946     0.13807002951447911      8.7022253220420787
   198   1      9.3484970394180777      5.0795739490321443      7.3525637538834658
   199   1      9.7145692626007882      1.8973734194120759      6.6744900202034003
   200   1      5.6422765526906389      5.9225147371020297  0.00019164463712306753
   201   1      7.8641902777431971      6.1465091061033759      10.963147804751246
   202   1      5.5120083183487765      3.4442838642788218      7.2028366504972725
   203   1      7.9642651318574513      2.1994457722475858      11.259901432059213
   204   1      11.047881017367413      9.1784787799422158      11.003582240018813
   205   1      11.139703523969125      6.4615795941489216      9.4157493482263046
   206   1       7.842883906482979      8.8731459955866896      7.1842141723636512
   207   1      8.2939962121877606      10.633674227023214      7.8411783004400908
   208   1      5.7785262875399628     0.11586230070436594      6.0668545334622825
   209   1      3.1020701475559691      9.9960316402117506      11.099227319999693
   210   1      2.5121928982614414      9.0500100396165077      1.4318393032258931
   211   1      10.447969839575476      9.8367769283114921    0.097157848392248405
   212   1      8.7967141887286946    0.079505715375214198      8.6987886083425927
   213   1        11.1211103948336      1.9952848947368724      9.1375625221857302
   214   1      4.0440501119209324      11.256155248584532      3.8581372964324072
   215   1      6.4714457178083142      8.6229219086978919      11.251409262970178
   216   1      4.3410010439278768      11.272949115677818      5.6072561447548246
