(written by ASE)

216 atoms
1 atom types

0.0       10.98507269655258  xlo xhi
0.0       10.98507269655258  ylo yhi
0.0       10.98507269655258  zlo zhi

Atoms # atomic

     1   1      7.1960234584563976      10.176240328079587      7.5456772091680682
     2   1      8.5383202357926109        9.17672452953998      8.6930340215786615
     3   1      9.8764781415958609     0.52858271072587348     0.41605169142578641
     4   1      1.5788234306313456      4.5292657098114608      6.9153572310599696
     5   1      5.4987661390401623      9.4862013831878773      7.6920424633236681
     6   1    0.095802985405544064      1.9997782336486976      9.5121037045558019
     7   1      2.8510143082466812      1.6236318883895675      9.7429036542999832
     8   1      3.2796739779228061      4.0339239498930404      2.3386870059745246
     9   1      8.1906629354542311       8.303109146393254      10.181206497467652
    10   1       6.577461617064527      10.064565000992731      2.1517623013077003
    11   1      8.3178280730057885      9.6727544575924078      2.4561875430638245
    12   1      9.2726716874919184     0.78964013501717056      6.8497206444026677
    13   1      8.6989000769358675      3.8075903075020361      5.1607835208582511
    14   1      1.3505386396440053      7.8943873836133296      7.9523194789397582
    15   1      2.8260688384599137      9.2861543255255921      5.9502384980328626
    16   1      1.4553799385564024      10.624034342423684      8.7138998008443007
    17   1      9.0930296387501883      3.7984397960840393      3.3863106862607055
    18   1      5.1226704060190142      3.8929917512407384      3.2857943302781303
    19   1     0.80876433049621232      4.7062229494368237     0.94064879098994503
    20   1      5.0865453747631753      3.7205321059180574      10.547394997318984
    21   1      4.4560017102781275      1.4145434043711078      7.5353113067365607
    22   1      10.386791499893709      7.7126470273963923      6.1708892327939528
    23   1     0.51030057562441278      10.328785997910801     0.67552917998679929
    24   1      10.765678809387065      8.8561299989715749      9.8468860678277537
    25   1      2.6315558847466582    0.024406372979417879       3.868185978576097
    26   1      2.1528236825693639     0.37456574537030035      8.0825756097857955
    27   1      2.5210475169601265      5.5694590866559626      8.7804610179957532
    28   1      0.9262125981089262      6.5081574940367162      6.4630107773809202
    29   1      10.501072327948791      1.2546489877092701       4.728643806686299
    30   1      9.8834453217650733      5.8934139381328539       8.799049733784635
    31   1      8.8693025232774172      5.9086891142638338      1.3816124047895628
    32   1      1.1507345076955184      1.8078761574481945      5.5792864835246618
    33   1      5.0087401984979856      3.4505181592694956      1.2032261134311446
    34   1      4.7776528366197155      2.4137516526463276      5.1258492640849909
    35   1      7.9161666739355701      6.5672703808427721      4.1941698098677609
    36   1        4.83482117313903      10.959364768294947      6.1984181577851807
    37   1      5.4112874953878238      9.1064069429672756      10.485220929537581
    38   1      3.3633045953486045      6.6720073685227268      7.7028682719174206
    39   1       8.728867442052179      9.2611003853734015      4.2832859243975454
    40   1     0.80057850479805959      4.9846223732378743      4.0257642577123454
    41   1      6.7934005680702816      4.9346833110516286      4.5231580634154325
    42   1      5.9935399859463079      7.0591279256869219      8.6004402348051094
    43   1      7.9585696608623868      7.4493566836441367      7.2103651033492477
    44   1      7.3420097883655728      2.3964657777897416      10.211862705282616
    45   1      5.3979211190145913      9.9605814109809359      3.7241687402608994
    46   1      6.9055070687010609     0.22989359207296292       3.964942529587351
    47   1      3.5129853696966271      3.6485213112634889      6.6576306222629942
    48   1      6.7173966123572795      2.8267077673707561      2.6340037761127215
    49   1      10.900652361738912      4.0989276074867762      8.9162853469961831
    50   1      7.3413005664549971      4.3073023934209118      10.464152652524637
    51   1      3.2553396322915402      8.5636795508103258       3.779822192681213
    52   1    0.032244114388784002      9.7943342064804852      4.5340644999927058
    53   1      9.5256290696907726      4.8768784582620466      10.693232895780467
    54   1      6.2627548935588662      7.4159392009038676      2.4196212288442496
    55   1      1.4490996933460076      3.0377375904804862      8.8425057486294634
    56   1      4.2664637188459285      6.1352508248142348      1.0207355005730845
    57   1      3.3682805693441318      6.1839863867489067      10.803857641340727
    58   1      9.6180277925588253      4.3842893811519907     0.39690949347674725
    59   1      2.8825620332636541     0.96748632813542235       2.414682589316937
    60   1      1.7652536315848077       10.57874081558629      6.9687373964530774
    61   1      3.0601913058519674      9.5212565705598511      8.9862213891960785
    62   1      3.2444173063516182      4.6882352925884634      4.2738140273624721
    63   1      0.1021689404504158      1.1198680658098452      6.9035886896752112
    64   1    0.093343340379787004     0.72619889032817431      3.2499238180754073
    65   1      10.650766166753945       4.694306181707204       3.801067118054644
    66   1      10.435621432090636      10.911864096987497      9.4713116733370732
    67   1       10.06650391340086      10.236499087497188      5.6613374217349861
    68   1      3.8816249874536441      9.3024592349922468       0.868417552408283
    69   1     0.15747719713361852      3.2663239686266232      2.1117362029989022
    70   1      7.0183581335711063      5.4848126202337655      7.2507814340210315
    71   1     0.52136016020753817      2.5569960018712892     0.29387763788334492
    72   1      9.3439979101738295      2.9151171896259673      10.826410899903635
    73   1       10.39990661251788      10.197889513374379      1.7864370198904154
    74   1      7.2759813734409704       7.808222074759378      1.0038805186490343
    75   1      0.5943370818161694       8.910299393231929      1.8807565605381114
    76   1      5.3546589472270725      1.9125621450337451      10.743585504506298
    77   1      8.6999401354724579       10.95916218617069      8.6624420572798186
    78   1      4.6215084817264573     0.49903910648092131      5.1360306898889823
    79   1      4.8718336529785802       6.146027817920916      3.4418097960419476
    80   1       5.414725882982764      1.7967207728993728      1.7479906075554814
    81   1      10.293263311292046      6.9972244449453438      3.1785830183405404
    82   1      7.8201533326432253     0.61348728986342671     0.99378567853329502
    83   1      7.3331821279195477      10.923952410557396      3.9809416640413491
    84   1      6.4634344699100525      2.6748668595438763      7.5125346635506762
    85   1       2.043629095494504      7.3411842004589758      9.4612893666413367
    86   1      4.0287125211679067      7.1549088104773153      5.4769950393667592
    87   1       10.40793359682938      3.7992364312880986      5.6263742128653522
    88   1      7.6931557752577824      3.8407839059766697     0.79969745657884228
    89   1      10.050673753159931      1.7912156104794277      9.2825188376378041
    90   1      1.5485176094482467      0.8571951052703799      10.759253804851898
    91   1      3.0484634559553423       7.934207229255116       1.656221160037519
    92   1      10.556944483104861      4.6700496298545859      1.9265165909428099
    93   1     0.65320032847795984       6.732143525946964      4.0960945443089694
    94   1      1.4584025411722195      7.0289684651146294     0.18630969142627021
    95   1      5.5802793122685701      9.3497040703127698    0.096970991697989409
    96   1     0.05501158200647599      9.6775003496379206      7.2780031082920482
    97   1      8.2209117856751508     0.56920335557362678      8.7900583611072225
    98   1      3.4040058227838648      10.662270881563707      10.310220007743119
    99   1      8.3704672859773481      7.8902984984907496       5.370511489658008
   100   1      10.953865457159081      9.9000633542001655      3.7459890912013067
   101   1       8.068748134209045      10.608224154558155      5.7544887835788394
   102   1      7.7811795832237056      10.668198591787968       10.66919612424782
   103   1      4.7012629088177249       10.76351037263456      1.7445551374076196
   104   1      10.725139259830856      1.7235984020480404      10.971960173705071
   105   1      6.4904109034681827     0.37053800631993333       9.118033732868529
   106   1      10.171733267005187       5.219066237521969      6.6661815180102257
   107   1      9.4508572390944039     0.40433052391591789      10.484937751080867
   108   1      4.8278242640615145      3.0770934982195475      8.4097151328657258
   109   1     0.21894147505034395     0.39977480784020392     0.77088996758515549
   110   1      8.2981861613907917      9.3716454927967643     0.46705058906971419
   111   1      10.004431683714962      7.0862711721062155     0.47260621987979318
   112   1      3.8511331061025311      8.4223740647922156      7.5320142821678644
   113   1      8.8256146429713151      2.3163690424101042      2.3655322166900059
   114   1      1.2635591552154652      10.316085638807028      3.3140717210079789
   115   1      8.1518253676365067      7.7864017312117433      2.6493963474012343
   116   1      3.5901233587305219      8.0691712956178652      10.940369509047613
   117   1      3.5075949502427197      4.4199376937368609      9.9071603580142025
   118   1      10.848698962597533      2.4961902913865757      3.4892852406663897
   119   1     0.23192997028375337       9.354242260670782       10.30207305365618
   120   1    0.020168230702196692      4.7636219359608578       10.92906418738572
   121   1     0.71106240463907366      2.7559238770531298      4.0333664687040063
   122   1      2.6383038672550354     0.49959532256800215    0.040150601996991449
   123   1      6.3662940016017684      7.3630243299656559      5.7254158292919666
   124   1       1.116805535179241      7.1507897142385497      2.0864700945834431
   125   1      6.2074510871416635       6.414497101280455      10.419916487839055
   126   1      2.8592818245594764      2.5998408907681183    0.063003980310836094
   127   1      6.4196463243732218      5.3599230979000092       2.646780465185909
   128   1      6.2505096054699267        5.22767204029015    0.077660862142714143
   129   1      1.9353187829181038      7.9382707681740392      5.0469157698696865
   130   1     0.41852462926238349      5.1706761861050348      8.8104519382524629
   131   1      7.1248095249782271      2.5149460211174359      4.3980253150611581
   132   1      9.8565895728978372     0.53373637167334909      2.3866191221508744
   133   1      4.2725016857560911     0.31053855534531555      10.093399827548273
   134   1      2.3498704359318294      9.9541596605973588     0.29126761406944668
   135   1       2.333452658816912       3.174318099179386      5.0190256416423287
   136   1      5.3549971133938659      5.4104612868688751      5.8048366873103756
   137   1      7.2608685835790752     0.58727633117495948      6.6467556380965389
   138   1      8.1677988065224003      5.6957386545150062      9.6714606129073708
   139   1      9.3959678671088742      9.9419865450189082      10.932397411353575
   140   1      1.3198501637927114     0.12973907803657309      5.0765882442262855
   141   1      9.9799462647011179      6.5949753573698651      10.511275875941585
   142   1      8.1433833399334858      4.1516891710571171      6.9346161558817334
   143   1      4.8018334829556295      5.2996515304024658      8.9449629159050019
   144   1      10.669287599013497      8.0912434839063856      7.8909873799480845
   145   1    0.019397283840288125      3.7592977359037341      7.3205263438618617
   146   1      2.9909850231670316      1.4700673715129107      5.6709501228633741
   147   1      5.2959600815773262     0.96868480806002477      3.3695840058290027
   148   1      7.6129829158214735      4.3188169971108961      8.6422070124399717
   149   1      2.7039265507716674        10.6606134326281       4.596774215223089
   150   1      2.1043172471642744      2.5369150823759048       6.912464824810356
   151   1      5.2905384855667084     0.85526462952433047     0.10376407245871104
   152   1      1.6662613495472536      2.8406207724430454      10.761358374689809
   153   1      4.1706893259075528       10.90926743466502       7.854732961146996
   154   1      6.7646171176493031      9.0400195548334601      4.8638477700539937
   155   1      1.4609388446171458      5.9409520169197307       10.72312311170632
   156   1      8.5605127029485057      1.2265412598853391      3.8689303581663195
   157   1      0.2573443255046074      6.8596542420678972      9.5807336132007315
   158   1      5.8916251720732866      10.920724640583241      9.6343050722093917
   159   1      1.0972693619418274      1.3837403132767654      1.9346359735607674
   160   1      5.1242345774976998      9.0499931764251169      5.5577164241077703
   161   1      1.4784205775597092      10.590253426945477      10.601736662774687
   162   1      2.1128839820852021      5.4501389524097403      5.4121965804245651
   163   1      4.0650435448941655      6.9640010471878213      9.3992831077384302
   164   1      9.5281801430571704      10.761861118347714     0.09921838913686043
   165   1      9.2072653557376203      3.5767556249126757      8.5750574247133127
   166   1      10.440053482976635      2.9171792935059835      1.5572210482189797
   167   1      5.7074528515500909    0.039238347186549047      7.3343795103124041
   168   1      9.7785634226628648      2.5026146134860197      7.0360753795487483
   169   1     0.77212821608986493     0.25339924549363285      9.1666189676936671
   170   1      8.4489903134350559      6.0135890468360449      6.1883140280781417
   171   1      2.8419730788448088      6.7613169213253839      3.1833125341855637
   172   1      7.3179977511801262     0.19279964270460018      10.948808021016605
   173   1      9.1370693805370404      2.5038705022435632    0.034919516979819175
   174   1      4.5658760682849717      7.7656801024218565     0.17685644030218151
   175   1      10.216122087673021      10.631713863238495      7.6845297129373407
   176   1      3.4331225366865299      2.4394052519536662      3.3957952872320201
   177   1      2.8309559908873498      10.062808345827728      2.3960870960398788
   178   1      10.482337354759084      6.3494017602001378      4.9987197426198202
   179   1      8.1341180564001689      2.1848281061621386      6.0656143702013638
   180   1      5.4175296842561487      3.7279612439389496      6.4477144973107787
   181   1      10.364942460963574     0.11461861341191511      8.6205694360582061
   182   1      2.3189605709033225      4.4718780737436363    0.068929788453065161
   183   1      1.6569197993699947      5.2209240533053283      2.4104849669012722
   184   1      10.219157443131103      8.9380723293537816    0.023773688726346852
   185   1      5.4186970553377947      7.7996245296576392      4.0348085715744064
   186   1      0.2199436952021126      4.9952672347543476      5.6930047045585379
   187   1      6.5273487399381542      2.4314693065054875     0.11832686712739562
   188   1      6.5264637379026489      9.0129888200376467      9.0828215993504884
   189   1      7.0840243021862506      10.728220517242921     0.37607210033027749
   190   1      10.944164128943758     0.14457955203164116       6.053568353246102
   191   1      9.1201755766054067      8.7433827994302771      6.8979719389661867
   192   1      1.8560794192602095      2.8652173909798138      2.6121586076061551
   193   1    0.064913760898284462      8.2253850952159038    0.052779685723418457
   194   1      5.0441611374064683      8.6213769945548648      2.0604576211580934
   195   1      9.1873297711529336      0.1054892723724198      5.1283220040341631
   196   1      10.867688290736753      2.0442509645512787    0.079031497817633925
   197   1     0.24220765864800373      8.2604144715385992      5.6635571312691724
   198   1      9.7500516309551646      8.4862201257272858      2.2109319612511289
   199   1      10.942723617211554      3.6833910440689515      10.875597747835993
   200   1      4.7660265704974405     0.13899451477338901      1.7663191228052428
   201   1      8.9681160733372121      7.4649200246743019      8.6550582485322813
   202   1      9.4313511041887335      10.834881188003337      3.7830511585636888
   203   1      5.0281614544084992      6.7414627922927846      7.0633203705537539
   204   1      8.0585107379625391      2.2596864561873358      8.2154536735123624
   205   1      3.5537470703725753    0.068477548161826857       6.792013530254839
   206   1      10.232860059692799      8.3034878856337695       4.470319670781115
   207   1      3.4203874724967975      2.8666865495308218      10.971814052149874
   208   1      1.8002435242667476      8.6587150619622264       10.73182710221719
   209   1      3.8799464963624728      10.941384526522251    0.023137879280204676
   210   1      9.0716761582014289      5.5952224631894749      3.1488290768442564
   211   1     0.49660179368749618       10.98431203633009      5.8247520761286289
   212   1    0.044859905670482807      6.3130057229787555     0.97096544025213793
   213   1      3.1265505166983383      3.5327524440991098      8.3936403108711293
   214   1      6.5579035057759656     0.24161350868502388      2.1776160353309577
   215   1     0.83704947626405113       8.520561735634578      3.6415471268675024
   216   1      7.9010957740974384      6.4132839848932175  0.00065042956931164026
