(written by ASE)

216 atoms
1 atom types

0.0      10.717036443231441  xlo xhi
0.0      10.717036443231441  ylo yhi
0.0      10.717036443231441  zlo zhi

Atoms # atomic

     1   1      3.8618488233674557      2.4891061443480536      2.6492824229529219
     2   1       10.59584853678245     0.72597271212723302      6.5762822812841062
     3   1       2.214312920373589      2.1924488475572965    0.056371104534176292
     4   1      3.8025817748201658      3.6451615291273214      7.6075725740042479
     5   1       8.189933742168666     0.79989382580230306      7.6766541703193045
     6   1      5.9980656754730335      2.2804404806436089      5.8542536809550203
     7   1      3.4844895748795373      2.6617566803406807       4.479299493147459
     8   1      7.2089016666512533      7.8396315350579986     0.85668711384783336
     9   1      7.1228153746449294      10.656385449872776      2.4342475548814728
    10   1      5.3229914825618048      7.0219659878686009      4.6936079984527055
    11   1      10.446540928950771      4.6754667602843671      9.6237134927886903
    12   1      5.1307298759354634      10.686581128677146      7.5798582561783157
    13   1      9.6975082474646577     0.24923383859289844      5.1266468295534837
    14   1      2.4560022216047686      10.007159206729298      3.5268414127269181
    15   1      6.5624466879827539      3.8303334455652931      0.1464643664792154
    16   1      7.6852960248030149      6.1537857803702929      9.4527587018174017
    17   1      8.4019483297146031       9.065309214403193      4.7199735044370588
    18   1     0.30505460377207355      5.5651777412987906      3.0260751529485921
    19   1      7.0143597466218477      4.3308946175137173      4.1283297214248647
    20   1      7.3443617898676639      7.5934914289148931      3.0194996559028651
    21   1      1.5343247693577682      7.6303885450347542     0.72462349464988562
    22   1      8.1674340483796914      1.7282676114603255      3.3820278502877774
    23   1     0.59253038330010033     0.95961026918046832      4.8678225199080192
    24   1      8.7543782646924182      8.6601239746464191      7.5034065048752039
    25   1      3.7176630531429358      1.2626867059781732      6.1226999651529956
    26   1      6.8652181438536042      3.8678726109325043        6.58962959509984
    27   1     0.45781636856744773      4.0938392281688367      4.0103157088857895
    28   1      3.6512660796575025      8.3740038081014028      0.2602968140200857
    29   1      2.1087227990077686      5.3372894573222283      8.6734064081588027
    30   1      8.9388142387188267       6.409777840814435      7.8932862167106244
    31   1      5.7263430628110124      1.5643337149994498      8.4517298601965543
    32   1      9.7447200387113604      7.5566323419444643      5.3401699254720283
    33   1      4.3897908973882585      5.6838565248058188     0.77624859657435519
    34   1      8.1535687326844695      10.173502946464103      8.3342752016822406
    35   1      6.1555279601232531      10.122657999661342    0.085101650928476588
    36   1      0.4525313499891937      4.2951697396269735     0.63886441135832295
    37   1      5.6863666381177138      8.8092719942518567      10.684689541005641
    38   1     0.50812347409615632      8.3364135545347029      2.5929334168808347
    39   1      10.145342565519375      9.9657365328692968      2.6976165003616974
    40   1      6.9214480988258753      3.0928773748920007      2.8495921925340806
    41   1      9.2753586363273683      10.684359082363667      5.0217188450917982
    42   1      5.2049089626296743      3.7817282737781657      8.9098500234134583
    43   1      7.6180047092991288      6.4038500124152575      5.9713945813508627
    44   1      3.9066171836013535      8.0908488900235032      9.8291521163491726
    45   1      9.6922582955470702      6.2634644574480038      10.419797692760817
    46   1      7.7916362874958942      1.4466386203014243      5.1940255519255585
    47   1      2.3309661496654739     0.60100888461875046      3.4515303356524103
    48   1      2.1226454275472886      5.4684983130313487      4.1611382141592479
    49   1      9.3644345392199426      1.9048791982268076     0.21377722215079703
    50   1      5.8050838926646433      5.4009164478085401      3.1181799774660801
    51   1      4.1449804621927351      10.315468610701233      2.6761814598636202
    52   1      1.4220856756273077       10.43832710666792      6.1169282230043525
    53   1      9.8297419952569953      1.2743496103842646      10.678371261048333
    54   1       1.746250380765475      1.6562363701180129      7.4355007616326985
    55   1     0.67365242869643227       6.541871840707393      10.260496381430913
    56   1      9.8622369754823698      9.5856902099014452     0.20562001113962777
    57   1      9.6642378619269316      1.6868188644708904      8.2903475537170195
    58   1      3.0591280586423202      1.8715995478723206      10.346565902640707
    59   1      5.7383195195120811      0.8692681612967319      1.2504829486555813
    60   1      7.7197312667457751      10.103799290814804      10.108436249273032
    61   1      9.3974166252543547      6.2143846695062299       3.967827074134036
    62   1      2.9481795228252476      6.3704497127533548      10.174156840958023
    63   1      5.8405096502469114     0.73984797192754359       3.299055128995493
    64   1     0.58878539944312169       2.201992865526893      9.9534309274411843
    65   1       4.083534280213442      5.7133712377165358       5.904348543464379
    66   1    0.055997796524947969      9.4326958939083614      8.1792355449910108
    67   1     0.73535214361871071    0.013163873605874128      2.8989630797812356
    68   1      3.7444558701201096     0.62699534248160516     0.36697586928339748
    69   1      1.7790722146313138      8.4976351850004441      9.3365054933485023
    70   1      3.6900794414755045      5.1989703493469452      2.4386356285969546
    71   1      6.9155695964616628      9.8490683408972384      6.5246478016708132
    72   1     0.85118253436490077      1.7558992044402386      1.1210582449233448
    73   1      9.9868977194729123      1.9387372018997453      4.1272919971327298
    74   1     0.38540894314071444      5.5287081388165449      6.3817352509223815
    75   1      5.0853126281337762      2.7333789915573146      10.512805844736629
    76   1      4.2252435670310353      9.4218701176547714      4.4685913879065442
    77   1       1.455942896290376      7.8964278045891172      4.9259113901530815
    78   1      6.6113225063226997      5.3969076502025084      1.2258341679536462
    79   1       10.45873143127374     0.37945550281804125      2.7731108139836382
    80   1      8.1120446332458318      2.6202233173783696      9.7986796748375351
    81   1     0.75442618884300439      10.489013204593958      1.4608284678083872
    82   1      6.6786503348931738     0.80913461194796965      10.695073880811737
    83   1      8.4112250609462809      4.3357135390864157       5.878569049655388
    84   1      8.4134363766710756      7.8408967642589644      10.578700572296906
    85   1        4.79186899995325      5.0036028752193671      10.268148193856044
    86   1       5.006598234420558      8.4000238301348187      7.0882142510781447
    87   1      4.9049556610207752      6.1880605416727299       8.278029942437227
    88   1      3.5686218808848751      7.7080440332977798      5.1020368967919758
    89   1      7.1685764249694035      4.9416134089043977      8.2985577012615828
    90   1      8.0220861826951584      2.5832968970606505      1.2162599124503453
    91   1      3.3976654459585331      1.0526349836555933      8.4855043733152247
    92   1      10.652728056793991      2.6711874694437272      2.2108281090928283
    93   1      9.5290732792046562      6.3952209649174403       1.960924755397419
    94   1       4.064225998610671      10.250578614620435      9.9359412788329404
    95   1      6.4619308973791183      8.9363967675775946      4.5760737944520988
    96   1      2.7329650077801531      4.4907716833471092      5.9854691289701067
    97   1      4.4506134549001022       7.712463406494745      2.3325609546805359
    98   1      3.1956953571733364      10.713727711901671      6.7783183125328987
    99   1      10.619887650716198      3.7133569310644616      8.0350697963612454
   100   1      8.1933866042997359      4.9906106887738737    0.020408847197028623
   101   1      10.101478871490082      9.8290708426787319      6.6515616187698159
   102   1       2.903334352537934      10.189878763866778      1.3717921842527734
   103   1      9.5388739656864185      4.1067361729660208       2.969169470072365
   104   1      6.7471258472246918      3.9625831354611942      9.9683386916512244
   105   1     0.40656761960808574     0.44360573460808594      7.0063800417645874
   106   1      10.698420092769927      6.4493033026416411      8.9298577160371391
   107   1      8.6493279653883075     0.13349844535880201      1.9799203078302177
   108   1      10.244862282240749      4.0671900342469325      6.1023204595545009
   109   1    0.065163712135467414      5.6328707237654729      8.8251433552280556
   110   1      5.7871889502825882     0.05597888291977169      7.3820644773306805
   111   1        9.19782436655737      4.6409891285435725      7.5061538902851721
   112   1    0.096906715291254802      2.6584863318411656      5.0830267844516603
   113   1       4.355249288688225      3.9081403513819306    0.017008496483120538
   114   1      2.8912423070330449      7.8638615535834804      7.9816359485366233
   115   1       8.247745953589197      9.3404805278946128     0.86669033656758954
   116   1      5.4664547148694469      3.3786385502549652      4.2452590901107587
   117   1      7.3441719006833219      8.4700758016989965      8.7367162456917775
   118   1      1.0404892775935899      7.6550599556807502       7.516239657383788
   119   1      9.9087412177365213      10.414911125246416      10.436049521664875
   120   1      2.2419657825032839      10.539655415120045      8.3409681585526858
   121   1      10.193650995798377      7.6526018845652013     0.63255962483072292
   122   1      2.3190369581192827       3.985514176523655     0.30385210416923392
   123   1      10.279089246004867      10.403431661925758      8.3759502739827667
   124   1       5.825032346827304      5.4158379916478436      6.2230800041153174
   125   1      10.099669834222832      7.9516626852151466      2.8776780378270543
   126   1      4.5365826820954194     0.31314533975194575      10.269387970068273
   127   1      4.9231684101723792      2.0346384241095086     0.19808015820561875
   128   1      2.1171540616580802      2.3050314656574202      2.9416236313107009
   129   1      1.5537394963483349      3.5007273417377602      8.7937841131648096
   130   1      1.5103458761344217      5.7984583776364689    0.043142565672802231
   131   1       1.637581267994213      4.9389236420289828      1.9590274716713556
   132   1     0.32039536104340893      4.4255428548436448      10.360383900673236
   133   1      5.9407590636906162      10.253619562436002      9.3691361189030147
   134   1     0.24410524253432492     0.41368879438073242    0.037978245681678319
   135   1      5.0344719279421399    0.050433193018540795      5.7688096829146005
   136   1      1.7755357674738439     0.23691685788778125      9.7545203782443419
   137   1      4.0847780223064971     0.41088397586904735      3.6850590861094963
   138   1      2.2961218593880934      9.9433734484738725      10.474294683468031
   139   1     0.65255062128536023      10.117678328273861      3.4600240458696985
   140   1      8.2938263703892741      3.1813065959777389      8.1325507409312081
   141   1      10.643900726569969      8.2801871923156494      7.6494123274344563
   142   1      2.9626261670583363      4.1767052253409913       9.926254383778339
   143   1      7.1800629498600319      10.652225946696982      4.7562485306283273
   144   1      5.6614746240285276      9.4579949164122574      2.3471576751448584
   145   1      10.007009295294528      5.2622592813981974     0.32310822444868353
   146   1      6.1602461938393134      7.2233956869575726      10.051036246137494
   147   1     0.69482174940363117      10.623712065664909      10.281567161916392
   148   1    0.095150323401241327       9.211818358750401      5.2424662875018084
   149   1      1.5350372065994669      6.7698041143680712      2.3128678761580268
   150   1       2.107825835594439     0.47135794886183147      1.3847947598108972
   151   1    0.061732877459481646      2.1419994554376527      3.3122387969032467
   152   1     0.62789994650406811      3.1259847449156841      7.1092681972124163
   153   1      9.8907895353463822     0.17920278046933405          9.152044322019
   154   1      8.5491483556523846      4.5682024846053215      10.385935123689682
   155   1      2.5810658279832137      9.0916154625611849      6.2752398823433939
   156   1      10.486834597086355       6.528910852491979      6.5796622367506226
   157   1      7.5510384797900683      0.5572658095638221    0.094406496190118372
   158   1      10.664574872500053      8.6427722262062883      9.8958883389346255
   159   1      7.6510082996497237      5.6690482885146416       2.635400887958788
   160   1      3.8215246613651623      9.4323667840160272      7.8665868944142057
   161   1      10.634284535139539      3.1140434787349491     0.12286383106466597
   162   1    0.036146201718489694      1.5951267805667115      8.3016486235646418
   163   1      5.1962204313010414      3.1449538473998606      1.5431063123675128
   164   1      2.4076494656895706      6.3592529559925186      6.0105957025770689
   165   1    0.013447204249268721      9.5229349772647609    0.042898404177837163
   166   1      2.6823713643051499      8.2649811223455991      3.3528047988552196
   167   1      8.1264077254512621     0.54917501683104541      9.6759886197900826
   168   1      2.3335619698351739      2.3819476667100501      5.9180258140608482
   169   1      9.0195305808182518      2.4629350502117329      6.5434242396793181
   170   1      5.6686761300453279      10.670569298705438      3.6149444498744998
   171   1      5.4570362864806734      7.7119643535616476    0.031713738201549047
   172   1      6.4555015587978835      7.3665388670568559      7.5513873625601482
   173   1     0.56696574808030242      8.4704945122782345      10.616111531929674
   174   1      4.1521275124600887      4.7168853279958585      4.3303447296052324
   175   1      10.630546093500069      2.9197206732919381      9.8880741032161978
   176   1      0.6809712797440659      6.3315460361842515      4.6577289780337416
   177   1      5.0216112150584671      10.585191173492543      5.5079149901326527
   178   1      3.4869043601397283      6.6506754346877699      3.6879851558959591
   179   1      4.5218705402563133      10.641876728853092     0.61714980609872472
   180   1       2.267192275434887     0.27021569076529034      5.7189607045559931
   181   1     0.20585162543611446      0.1758560308703784      10.582031568657706
   182   1      10.391627282427415     0.12350126893730018      0.1136944948818194
   183   1       10.60139454440295      9.0784523330121125      4.5522956995551667
   184   1       4.235241657565771      3.5408724162056906      5.8624069199619457
   185   1      8.6980476231086321      6.7425965050176595     0.32516833971528647
   186   1      6.8738807930686034    0.095089903533388045      5.9266387502137254
   187   1      8.2915940153677798      3.1068565556727106      4.4948014950547082
   188   1      1.7993697237348707      9.5987286377331102     0.14469996175154293
   189   1      8.5263728352402364      9.2711601884060642      2.7412110324443568
   190   1      3.0580235253099795      6.8156115136532023      1.2170928523260565
   191   1    0.044494801879685172      6.3306212407045601      1.0966211745752672
   192   1      10.671397915654792      5.0133239611854181      4.0054779837355499
   193   1      5.4324744339788804      8.4065761443071398      8.8472017612723715
   194   1     0.21707726709010294      3.7293682689716712      2.3152805140636508
   195   1      7.3732970153921684    0.040882679960958339      3.8389756136880511
   196   1      6.9673660164380653      6.3645231918135643      4.3288050207542694
   197   1      6.3485530348858852    0.027211859534790207      9.1350035968423366
   198   1      7.6752071085043179      8.1469264386054689      6.1870949249749261
   199   1      2.7415251062735142      3.9609932762277724      3.3464288633553787
   200   1    0.090566560899280862      7.2969347672330578      5.9927803602726177
   201   1      9.3154988475635445      7.7672403375209482      8.9767864647254392
   202   1      3.2730941241261546      6.1180223047960345      7.5750183865978018
   203   1      5.9469533390267983      6.9325785387023782      1.7837237936600554
   204   1    0.054848271929535571      7.6077787032500428      8.9924172651794407
   205   1      9.3481679161253783       3.821975575684275      1.1905558738830113
   206   1      7.0935872197159586      2.2113446148183726      7.2395331055914625
   207   1      10.685114578688365      2.3670403251161054       5.674331657413461
   208   1      8.4597982452968523      10.716937125018037       6.592576465327264
   209   1      10.701680150704767      4.9527333850037722      1.9245080056442991
   210   1      6.4679216028154993      5.6057476434099502      10.653312459150747
   211   1      4.3811193474692045    0.012278785243420761      1.9937008242103029
   212   1      3.1208845619235905      10.668269884610311      5.0296291007339242
   213   1      2.0312003060872126  0.00089677960266586773      7.9866471523555873
   214   1      5.4449819819268379      3.0649708262162978      7.3180662212238117
   215   1      4.9857011078426616      1.6643175626693147      4.5343447251812563
   216   1      6.6748739153812213      2.0783650711915338    0.059322567317125735
