(written by ASE)

2 atoms
1 atom types

0.0      20  xlo xhi
0.0      20  ylo yhi
0.0      20  zlo zhi

Atoms # atomic

     1   1      10.0      10.0     10.0
