(written by ASE)

64 atoms
1 atom types

0.0       10.07015431171709  xlo xhi
0.0       10.07015431171709  ylo yhi
0.0       10.07015431171709  zlo zhi

Atoms # atomic

     1   1      5.1541227408053363      9.5713160896871798      1.4517095456040854
     2   1      9.5530463203971507      3.1401908409923909       4.262962665385067
     3   1      8.3350928439803411      4.1206984474588193      5.5344932436133556
     4   1     0.27752452305178449      7.5879932802569519      5.4191862059368354
     5   1      3.3204492666132102      7.9395987073110605      3.0532187174815859
     6   1      4.5667937271081831      1.3498205754834129      4.0594099785797111
     7   1      2.0488256691363662      2.6415358162714035      7.5562880434457069
     8   1      2.8237594632763541      4.8859479831789461       9.876174941239789
     9   1      9.6840363351671392      7.2987465471697739      5.4502379530080773
    10   1      2.7883371522940275      1.6177905188528556      9.7672985819424181
    11   1       5.196890291896711      1.1667845970022692      6.2786380500373937
    12   1        7.82131881273195      6.1730378351960846      9.2373294370282988
    13   1     0.39870637765330535      5.3229754485452672      4.6255832215648249
    14   1     0.62786988330986571      6.4582736276845036       8.586144254737567
    15   1      5.9710075500567772      2.6192214347976086      8.4577365203459483
    16   1       5.130702148105927      5.1447299027189919      7.5831303929453027
    17   1      1.4895977264578499      8.2537675395375185      6.8808045826285298
    18   1      7.9261876597374137      1.9296052969667137      8.0799309168161528
    19   1      8.6732577126443182      8.8268638208594066      4.7522036951421232
    20   1      2.7597095622175556    0.071415808386133317      6.5025090607398814
    21   1      7.2495985823856577      8.4143109482783061      2.8385532186124895
    22   1      8.3262586574725184      8.9173257319220376      6.6498805824143279
    23   1      1.6566135587929636      3.7777881442983738      3.1896022136389797
    24   1       6.961870626651856      1.7982463689490704      3.9903607004938526
    25   1     0.05865457154064059      2.6433622634033735      4.2414363536547226
    26   1      7.3038218777807051      6.5845316306456461      4.3425199035285393
    27   1      3.4419256130076814      5.4748336415029657      1.9767399240149683
    28   1      10.031295500752094       2.449217256560634       2.586695032636857
    29   1      4.2387433969010146      6.6964939757258382      4.5912750130317095
    30   1      5.9063300577832187      8.4557535315150467      7.3157013592357982
    31   1       3.675679468428771      4.5154200279033887      3.7027914071303387
    32   1      1.1050449998918632      2.0466737115117359      2.8579751383340302
    33   1      3.1633768032560097      3.1524402452693985       5.807455134190687
    34   1      9.7850679976395458      7.8009873784348089      7.9668409393381392
    35   1      6.9446820833655494      5.0386664683802751     0.77624584653527484
    36   1      4.9187590901901679      2.1432409653935078      1.3362721928896735
    37   1      5.0961518616179404      7.9059300443109404      2.9707604020023228
    38   1      8.4712956977483529      3.9281109311083107      9.8153070322462437
    39   1      2.0261472793087592      9.9515168290430456      7.6362570458580965
    40   1      3.8416927005134878      5.0733734511572326     0.16840139439556837
    41   1      9.1135155406392379     0.16945335337693782       3.056381725840688
    42   1       10.06034479640137      2.6398586899554437      8.5500093526409238
    43   1      3.6524133189473287      7.6612604593793607     0.26670349433921919
    44   1      1.2851600063826905      2.2406784754955118      5.6599462434500349
    45   1      3.9048948319735275      7.9721001521231587      6.0938188336907357
    46   1     0.75738750192686088       9.696194886209728      5.4379961653777507
    47   1      1.5543648983264389      5.1388324706392652      1.4501311727748349
    48   1      7.2240439807526302      2.7825146902738473      1.3507498279203787
    49   1      5.4073917023715792      4.5420311843309085      9.6401019999806916
    50   1      8.5095129290574896      9.4533757731990118     0.22776402007269894
    51   1      6.0373039572973752      2.6219078962956734      2.6619418630800156
    52   1      3.8836340072257549       0.199732905523309      0.8243226622159141
    53   1      8.9072683154307448      3.1887993768002567     0.21614454623892088
    54   1      8.3201965979289731     0.62280818291867213     0.93644371586270281
    55   1      9.6993885177937109      7.5865060136638371      3.4022439568492553
    56   1      9.3330714046531469      6.2667916028563928      1.1752862674830935
    57   1      8.1308719998815953       7.923144654311308      9.2172955077467531
    58   1      6.7500913688260988      6.9772295963764766      1.6489037275992586
    59   1     0.24056404309053819     0.66023106201611614      9.7122745231002661
    60   1      2.7907754470817063      5.5417897151808342      5.6131934372368724
    61   1      5.0248705741878998      4.2744137969496077      5.7974398026665526
    62   1      9.7344394888896097      4.6129318611387626      8.4334664491630473
    63   1     0.56263930956980424      3.8829231809384313      5.6442856786476003
    64   1      1.3878966204649297      9.9065135919227796    0.027664200275891618
