(written by ASE)

64 atoms
1 atom types

0.0      9.4763780237174178  xlo xhi
0.0      9.4763780237174178  ylo yhi
0.0      9.4763780237174178  zlo zhi

Atoms # atomic

     1   1      3.4668715800454741     0.55363321770673146      6.0649819897887456
     2   1     0.44096621351539667     0.64827556685809518     0.75756540330568423
     3   1      2.5755386454517604      5.4617869293556884      7.6327355793505962
     4   1      2.5320084594899832      2.6834359774277332      7.8131044698935561
     5   1      7.0688888367305092      1.2017444944167004      7.6412673242992719
     6   1       7.877249738062118       1.685144347445652       5.941196235686566
     7   1      1.8644169341333499      2.3074289851982752       4.681385283386267
     8   1      4.9487543964181366      4.5395026779434815       5.128057185263299
     9   1      2.0200290551109918      7.3781218902251631      2.6329965856726862
    10   1      8.6489318693082939      4.8818063977378614      2.8778248854775001
    11   1      1.6525277814197363      4.5979761664598806      3.5659354655384723
    12   1      5.9046723051121033      4.7235914344794789     0.35024406989703538
    13   1      7.7019228596589064      8.7560133827607878      6.2961154253033564
    14   1      5.9922264167688208      3.6118033360875637      6.4029809839379572
    15   1      4.0525830235482569      1.1610993842890289      9.1525523782820883
    16   1      6.5509765567029525      7.8941553041646069      3.3874331604760952
    17   1      8.9541908378268076      7.6990558491118923      9.2821714597829974
    18   1      5.8175010452027198      2.3711767852314827     0.95211339858597277
    19   1      4.5165989491647309      6.0598778060186733      3.6390752725596958
    20   1      2.7148972482950202      8.9756063062308264      9.1137809848641389
    21   1      3.8013937132022586      3.3264348176708003      9.2312660997322595
    22   1      1.6129380513409064      5.8163976474572081     0.36523277630828549
    23   1     0.86912351942675181      1.9900015269615592      9.3975932743353976
    24   1      6.8838744870651771      8.2258571331700576     0.46892704926174622
    25   1      6.4575683772337911      4.1690043855589751      3.9461528491274502
    26   1      4.4799385544810457      7.5811400213463456      6.0928383294015305
    27   1      5.3303685049495408      8.2431922532107844       1.870152445176104
    28   1     0.98633018720293741      3.7310889593414598      1.3000638799177604
    29   1      8.6944041136548496      8.1109484567238663      2.0939873274206007
    30   1      1.5786051531503105      8.6759690579707023      1.4901783404999571
    31   1      5.2473040662397521      8.7747864869203092    0.019491422415799035
    32   1      6.7226755797138162      6.8533801994766534      7.6306269828963078
    33   1     0.18818924154438491      2.7363446920397796      7.3984375067925532
    34   1     0.19114743414814289      1.5635448328578636       2.946854309380492
    35   1      7.5033968739311643      6.3998365466704943      3.9952746859432864
    36   1      3.0335991723944749      6.5729640939622991      5.1039246422157678
    37   1      9.4042510659628817     0.40299087769906794      7.8323095341259847
    38   1      6.4024242933412001      6.8192643262121928      5.4478353332351483
    39   1     0.89408702686226638      8.6069745762181693      7.1535185899343974
    40   1     0.65472495464024671     0.85210422408216357      7.9035768254167795
    41   1      4.9069474364210146      1.2185107320470465      4.9750477532423005
    42   1      5.1421651264613093       4.705893846698082      1.9567428478531796
    43   1      4.1165185920438176      8.2525649584173646      3.6364224486031809
    44   1      8.4787111037177141      2.5766817853226054      9.3501330553440383
    45   1      2.2423384160166329     0.33227443186034711      7.2987908461749731
    46   1      9.0059200437276861       2.144010225259434       1.541345820536056
    47   1      4.0998086434292951    0.035340846813206574      2.0118644899148532
    48   1      7.2017669698931526      1.5012287450651058      1.8912607965207162
    49   1      4.8636330877995286      7.4958894756975898      9.4627215267594522
    50   1      3.4846975348366622      2.3848743581684984      1.0501795430056096
    51   1      4.0975769324964837      8.4049067868392875      7.9191825566238689
    52   1      8.8448512057546491      4.2255704229301658      6.9185701153499135
    53   1      4.0814360888091201      2.6418507684256509      6.1775224014211734
    54   1      2.1616163766679106      7.3124040905057859      6.6820640264320765
    55   1        4.09972233207617       2.590325084321726      3.2527161764034491
    56   1       9.414818562463827      9.0597218195041886     0.79360909019727721
    57   1     0.67896868638706231      5.8911841619301342      7.1282730427121743
    58   1       7.499071937485116       3.665946110733147      8.1308348202071787
    59   1      9.0930689986249238      7.6155076716758225      4.3821122636162873
    60   1      2.5043846857071168      9.1539878578095326        3.76041600100395
    61   1      1.9967255805886117      4.0242044001758366      6.8146691714017802
    62   1      4.4831693327324631      5.5832334036996993       8.415011306093362
    63   1      9.0190081988121555       4.607056930320228     0.50644357353794722
    64   1     0.39603313062151213      1.0249607055000021      4.9161470626672923
