(written by ASE)

64 atoms
1 atom types

0.0      9.0017465382118491  xlo xhi
0.0      9.0017465382118491  ylo yhi
0.0      9.0017465382118491  zlo zhi

Atoms # atomic

     1   1      2.2728454305427257      2.5703149120861317      6.6745207445189498
     2   1      7.6936094394625902      7.7598638595715048      3.3362416814049998
     3   1       6.387910055803343      7.6722302788252419      1.3588815136624037
     4   1      1.8053332818928864      5.8327743252672501      2.3904170331345562
     5   1      1.7344309022573559      3.3083239340238038     0.14387713990202558
     6   1      3.9456390295123622     0.42551203865338305      2.2028196313951383
     7   1      4.2415907103666814      6.1919111578338821      3.0509522638537292
     8   1     0.35017157274049548      6.9150669830824318      2.1605300068216118
     9   1       2.990029497158623      5.2150288682318005      8.9916616735091903
    10   1      2.6976214978292483      4.2175253196436886      5.6481538127107322
    11   1      6.1515449483850348      1.9098662073948611       5.358935479700679
    12   1      4.8979082888523173      5.9283690001644285      1.0351736219103838
    13   1      1.1368712216299239      8.7814512097823378      7.3931485154742926
    14   1      7.4494611963328072      8.4085711219507697      8.6475076481822271
    15   1        3.54207502991009       6.787921593269318      5.7757014470088102
    16   1       7.761114289494695      3.6639118339174943      1.3338669891343335
    17   1      8.6062598442071625      1.7553806994453234      2.8461668918829002
    18   1      8.8589039771919769      4.6795995285728003      8.2998317417983465
    19   1      7.0343038752155413      1.0708990193547281      1.9442281561496668
    20   1      3.4852742370635865      7.9301448802596894        3.00647786440451
    21   1      4.1685471374644729      4.3277290134592032      2.9233644213712413
    22   1      7.4272079066755152      5.5481517949743369      4.6073173896774611
    23   1      3.3262170336441415       1.171483484879482      4.1118565740808775
    24   1      8.5843656131222765      6.0086374744052344      2.7483429823568768
    25   1      5.6543856783073441      3.1344966841079511      7.2983418170937489
    26   1      1.2359439501835663      4.1637248561529452      7.5684526467722639
    27   1      2.5664427978559998      8.5920341031140026      5.9136032780112231
    28   1      2.1451696596110379      5.7476915219566163      4.7457266024559477
    29   1      5.0849673597794114      1.9319090969919601      2.8681736427036637
    30   1      4.7911453632936141     0.54930408268953146      5.4430744508840201
    31   1      2.2646430791082275      1.9264680606187441      8.3909153534864469
    32   1      5.5758910263175236      3.9971312567902064     0.56403916336180371
    33   1      8.4385002167877818     0.16892859845681138      7.7924830711460684
    34   1      6.4398595959331626      4.4197651655846109      6.0731382901884636
    35   1      2.4769217384566415     0.47417973382535089      5.5998938680903816
    36   1        5.65777786929082      8.9964431605099691       5.410291850097142
    37   1      3.5656499785519706      8.1120023821867964     0.13848576005475946
    38   1       2.320050411513606      1.0796331902706522     0.30524787256925406
    39   1     0.41714177685960363      2.0862669267712386      5.0201181260565884
    40   1     0.36822122066897939      4.3345119559251559       1.674299118870981
    41   1      6.6289585471290824       6.182228511910262      7.3529404440175936
    42   1      8.6334124080767989      2.0687617911455551      5.1109574908169524
    43   1      1.1861272640437961      3.3466429873185604      3.8803579327182725
    44   1      8.5786624643325897      6.1599292761374098      6.3998716244587266
    45   1      2.3739693309136496       7.959673468411725      8.3835049271082909
    46   1      7.0996396240784359      5.4474158188276895      1.8846155233717281
    47   1      7.1350377598419952      4.1915509020560018      7.9841035949743713
    48   1     0.18827747420167359      8.5444225794835713      5.7685080082829829
    49   1      0.5964107446625232      6.1298897008146565      8.3174890325010526
    50   1      7.1327004187683061     0.19312648510970948     0.35078439743956286
    51   1      4.6148218604742368      5.1603783582348601      5.4581766419835374
    52   1      6.3044883668423752     0.51701454747785491      8.1875529012577388
    53   1      5.0728763519099394      6.6574065679492156      8.4966699091767346
    54   1      0.1824067175793716      8.5193434605403429      1.3600770630003403
    55   1      1.3627399438211616     0.25660751549435057      7.7976863925353488
    56   1      1.4663422090568423      7.8619376063562783      3.8335332605600767
    57   1     0.23624472332240812      1.2612485268739226      2.6690976831558815
    58   1      8.0331543357354906      4.0151950406024257      3.8438352088310328
    59   1      7.8736782597414825      1.7655304614879217      8.8345056874528929
    60   1      4.9632934887121101      1.6705422365413711     0.81964559149366845
    61   1     0.63890505607294368      5.7338185117004059      5.6583893627822306
    62   1      1.4656791864739611      6.6115474100511946    0.036554104883334861
    63   1      8.1564103651687319      8.3470386989647274      6.4838267353878427
    64   1      5.8295931638023877      8.4989988197744193      7.5786692352044609
