(written by ASE)

64 atoms
1 atom types

0.0      8.6098608261794265  xlo xhi
0.0      8.6098608261794265  ylo yhi
0.0      8.6098608261794265  zlo zhi

Atoms # atomic

     1   1      4.8922926504847171      7.8231500227738335      7.8600407190087811
     2   1      6.6395425888650825      1.0207933268754128      4.8362356319153683
     3   1        5.22848339525122      7.5709501379997919      4.4446675884243385
     4   1      5.2743127130288201      6.1574615926467677     0.72212016591227079
     5   1     0.48510490399541523     0.26172105494181325     0.91983847141673514
     6   1      2.1996829426690785     0.41660353652091614      5.1353200060808035
     7   1      4.9273302290046326      3.9199961008720203    0.077052689343692443
     8   1      4.4700913169146581      1.0880162584294923    0.043959190332676569
     9   1       6.855407017201947      7.8405956895506614     0.62266597363887233
    10   1      5.3717923083484607      5.0518532287983886      8.5263460990395465
    11   1      5.2834527490125796      1.4303859979262601      8.0313721187594886
    12   1      2.5744459515018252       4.644383014902413      3.7238696915203096
    13   1      2.5958569977748205      2.9750227893919785      5.7858792319527419
    14   1      5.3704015455480949       4.998621647167055      5.9055956231163025
    15   1      8.0315724908052299      7.8293935563727297      7.3130660115312907
    16   1      2.4280975756798848      8.2619289605792865      1.7189543918101708
    17   1       8.458918735126538       2.669141257896249      6.3832238924288305
    18   1      7.9779197313372521      6.7171285779664647      4.5050273932118312
    19   1      4.6377761956243626      1.2378674028064469      3.2895949800475988
    20   1      1.4567196760031202      8.3969659045600675      4.9551619985833337
    21   1     0.36290145580915695     0.45152630970200164        3.55107536668543
    22   1      3.8597060851926774      7.1372527156034264      1.1140743301635418
    23   1      1.8567422535813969       4.117689531573677      7.0617775363852182
    24   1      7.6234185703683623     0.74746357152554832      2.2135079487528193
    25   1      7.2548991927569855      5.2093290306766633      6.1926913526877296
    26   1      3.6183985633787601      2.5050348621597074      1.3503246010008831
    27   1      7.2592549659751864      4.5234530754585327      3.3959818170425642
    28   1      2.7429392037106686       4.830028003440785      1.8824718479155198
    29   1      7.8942343571443532     0.38144198071650526      7.5453535300421697
    30   1      8.4369222537697031      5.2971329262541786      1.8243831645802757
    31   1      2.7781028008270625      1.9066663355761073      8.2158578921425036
    32   1     0.65217251119982844     0.50013832813543158      6.7396346544716685
    33   1      6.6769773188691701      2.6817656187334911       3.220597651247104
    34   1     0.21575500110767182      1.9217512793899885      5.4230747007502877
    35   1      1.1364802118469586      3.6222440837362893      2.5681050656356699
    36   1      1.3633757401628259      6.3428713209913017      5.6723802036595314
    37   1       8.459588831933905      3.5738056572361137      8.5559948414681788
    38   1      1.1796790205047754      1.8657219325528538       2.802053407572576
    39   1      4.8121090020806605      3.2066193832285661      5.8333881613507659
    40   1      3.7134114722202609      4.4282926605346145      8.1956190049885205
    41   1      3.4055282801478306      4.9276818454786495      5.4639790443141028
    42   1      3.6650518552533113      6.6304901698465608      8.5786370242316146
    43   1      4.4184212796494142      0.6399304660510946      6.4362005829133846
    44   1      5.5815562749025807      1.2885596336811604       1.804815572187876
    45   1      6.8360152496898072      5.9819602644005387      1.5243882588475688
    46   1     0.22980245065006621      4.7746573868329563      1.2907963307046455
    47   1      6.2656836439806396      7.2764874542657889      2.9168797586740434
    48   1      7.1480286460193287      6.3087852093420596      8.3174142365482613
    49   1      5.4206175102874576      4.0404917944150345      3.3641747922691598
    50   1     0.62309811790434511      6.5971805481778469      8.2263395780684689
    51   1      3.7212271532556613      6.6798271563578862      3.4817050353646799
    52   1      1.1340054143825016       4.517937462535623      5.0539315934514928
    53   1    0.040192607745741508      7.2752590309340999      3.5487366566794023
    54   1      2.4030044335978613     0.40327244178658067      2.0511541528985506
    55   1      6.4775700531387326      1.3716455750389405    0.062306119659177733
    56   1      1.0044188990003688      5.9793401234962653      2.5002516265680739
    57   1      1.2170371099356121     0.23351745917104544      8.3930360392859207
    58   1      8.1191527660773186      8.3423221978970403      2.8210161998500132
    59   1      2.1934207787836968     0.84798700601721844     0.23446776688778412
    60   1      1.7384965292900105       8.384503862266234      6.9482005831647218
    61   1       6.492091937161133      6.9399297883787856      5.5244578129577766
    62   1     0.20078776692663466       2.095881078634803       1.316852843974416
    63   1       6.704057119147123       3.317606397623281       1.557413358461522
    64   1     0.38751370866957119      2.7409953732448136      7.7285031539764537
