(written by ASE)

64 atoms
1 atom types

0.0      8.2783787179759116  xlo xhi
0.0      8.2783787179759116  ylo yhi
0.0      8.2783787179759116  zlo zhi

Atoms # atomic

     1   1      2.8469941559368102      2.7519763995671238      2.5161022869217828
     2   1      4.7177478536691968      4.1308769674672066      3.1569312927250084
     3   1      7.0542319008981167      3.8763469318173969      6.9332790570963034
     4   1     0.55957876349498692       4.732833931744608      2.9496040353891542
     5   1       1.209537011000136      4.3598495354582765      5.9423190772669949
     6   1      5.2135957437182974     0.15854966204049106      3.0652455336142124
     7   1      6.5326495196337326      1.2786561927445952      1.4146380423489893
     8   1      6.3536557224119976      7.6165678225489639      1.3598046971703839
     9   1     0.48235745818146747      6.7621112721840788      4.6943937880521851
    10   1      2.0201832050688613       0.387491512930698      4.5564683095790404
    11   1      1.2674607615568427      7.4528406172228978      7.4944595751019607
    12   1      3.7401029936458596      7.8327532351758453     0.44519392692279564
    13   1      3.7703072351922162      6.1906392139987716      3.9716172281113478
    14   1      7.0578372935956057      3.3365794656204599      2.5336149246727717
    15   1     0.21062755882980205      4.0755421892180062      8.1145647572854767
    16   1      7.5628758633013655   0.0063597397912120547     0.26390806471401629
    17   1      2.2857569547646173      6.1491825430853009      2.7980060277582468
    18   1      3.1705531027565752      5.7752201697502938      7.3901331214398791
    19   1      1.4699425825599091      1.6846076809948904      1.6477026837890159
    20   1      5.1333740512572552      1.7926973110623425      4.2454447234518797
    21   1      6.2369343621816542      1.4613973608940052       7.981516762356696
    22   1       7.027906987046447      5.8231087877018659      6.2397416717344836
    23   1      1.4184596970876799      0.6137787899795154      6.6867367291180404
    24   1      7.3271955747462556     0.47124515186053989       2.872353051795745
    25   1      4.7126157331351122     0.62728417178124951      7.5919151108234413
    26   1       1.804227030444826       3.354138345831073      4.0524687994225532
    27   1      7.8191752348449217      6.4405331888022292       4.543083015232475
    28   1      8.1821838568691163      4.5719393409282389      4.7045422446208702
    29   1     0.29772981869636989    0.076766090739311746      3.0360615219245588
    30   1      1.6028962564963065      4.1692260867822428      1.0879429184772276
    31   1      5.1885481909549114      4.6136522155320012      7.5657220290113063
    32   1      6.7112272503359893       1.006771389594826      4.5281739732964557
    33   1     0.60673438005771763      6.2501744754368858     0.69346125343692833
    34   1       5.106401483193741      8.2478571003147376      8.1646757103040457
    35   1      3.4914461918101591      2.5716820671020231      5.4129161448785013
    36   1      7.7637933739476139      8.1603387128243821      3.1646530991922406
    37   1      5.3393316411860621    0.043905230352519552      5.3336958649418893
    38   1      2.6958203145675554      1.4473434651323072    0.095008578553159487
    39   1      5.5034777447481984      8.0893814927976493      4.2585242817834583
    40   1      5.9402694355870516      4.5841752468896084      1.3901423913229132
    41   1      6.2570835143965891      3.5379292662589483      5.4024611740417976
    42   1      1.9171029385456357      7.8742140197527091       1.098522416895267
    43   1      3.7939016137135231      8.2136846098009162       3.516884893356699
    44   1      2.5115495691088658      2.3229844205273462       7.763907155519008
    45   1      4.0826524613538142      3.3130880724437173      6.9159396494646987
    46   1      5.8969719228730737      5.2845867489029086      4.9290198452708989
    47   1     0.41868927230014075      5.8847954675258327      7.3804603348389239
    48   1      8.1501209164237398      6.4849653285472995      2.4848308237591432
    49   1      8.0943010142661684      8.0927666656614186      6.8681250078476888
    50   1     0.31977367094379311     0.93911273439171328      8.1037010313442615
    51   1      4.4880712786461805     0.92869716687826509    0.039725425071527418
    52   1      0.9542239265659016       7.273362093836182      2.4780406625178233
    53   1      7.9293117190473055      6.2960858628252243     0.37225679465037431
    54   1     0.28855572062272228      2.9195710887851458      5.4779470212999248
    55   1    0.024368618850325891      3.2884323437047458     0.49951948024704512
    56   1      3.0115056908844857      5.9925037406027899      1.0598970172764544
    57   1      7.6859822020499307     0.75307362982367365      6.3764962083048164
    58   1      3.8581824270315468      4.3487806729325502      4.8681098403901313
    59   1      4.6816652606699423      7.0644101321737223      5.6327514117760114
    60   1      6.5966194492271359      5.6996631233739761      7.9718720668365801
    61   1      3.5586322695393169       3.318340533690237     0.65718809769611608
    62   1      5.3724859638358131      1.6668313955806489      6.1622232611299692
    63   1    0.043855535989933199      8.0935063650126029     0.38738713693206045
    64   1     0.57823563064568262      8.1205817969871621      5.9125185604510744
