(written by ASE)

64 atoms
1 atom types

0.0      7.9926867739509042  xlo xhi
0.0      7.9926867739509042  ylo yhi
0.0      7.9926867739509042  zlo zhi

Atoms # atomic

     1   1      7.2411821370927152      5.2592338684472608      5.4370363162304161
     2   1      7.1995955296990415      7.9613704207083753      2.9733401427401458
     3   1      2.3670133943704266      6.0084494922833729       3.850313693580802
     4   1      7.9887175906611425      4.4941344378198211     0.86649406650211258
     5   1     0.35136601927383215      5.9954581176731496      2.7649082196557218
     6   1      2.2134116193927924      5.4009549771202305       1.928781524976487
     7   1      2.9897360128338208      3.0297607341467065      6.2325685295846638
     8   1      7.9615740198216924      4.3320187419444602      2.8973707470380341
     9   1      7.5220638828592978      1.4159785282569661      7.6802330632881883
    10   1     0.17524909718502824      1.2757545929574492      4.3242323473827975
    11   1      2.0005953009702733      3.6022632609110712     0.12180014712006138
    12   1      7.2402887504113878     0.40824366644339016      2.5478661038866681
    13   1      5.1914729359170861      5.5904525095757016      2.5785682816758615
    14   1       4.884772794474654      7.6453961846630989      4.5530183860924929
    15   1      3.8291232613988462      5.4722693151690232      7.4609081651596343
    16   1      5.4668862248266406      1.1023372269062608      1.4271133021361322
    17   1      6.1964457606440586      5.8996389129488875      7.8538171809685569
    18   1     0.45338346736771251      0.4035638020739199        7.90553233983655
    19   1      5.6340032242559701     0.78038928197782642      5.2932124100746041
    20   1       1.583983474928593      7.8664516309731445       3.574585871075016
    21   1      2.1681517156733956      5.2022021942451291      5.3949012944851171
    22   1      3.0523290846088074     0.74421081523648502     0.96461448582633702
    23   1      6.6412267988604059       3.630812144966165      5.8226458906170979
    24   1      4.4285888943540179      2.6364110290612701      3.8845150049268642
    25   1      1.7852271294817676      2.6556102945478228      4.8722897130684073
    26   1      1.5461196164691238      3.5995862559446921      2.2657023186326235
    27   1      0.1058182487885896      3.5049202921775722      3.7845274039499825
    28   1      4.1797416893422401      6.5311908587108665      5.8319984540642871
    29   1      4.2981603669725006      4.9521059952595579      4.3363150492963252
    30   1      5.5199292579517598      5.4548069450563448     0.19460048654037457
    31   1      4.9489155302583017      7.7830645079330418      2.6270103763980992
    32   1     0.54191993956335882      5.1763809626409154     0.53141156075061191
    33   1      1.0624016805250442      4.9301596071662743      7.5390116238660649
    34   1      2.1707893041361848      6.3446973261068971      7.4467186009007582
    35   1      7.8456408147935326      7.4583633046170199     0.99568591283882391
    36   1    0.090268669803212256      5.9750150876395436      6.1068674721587746
    37   1       3.056782351645134      1.3513824295683017      2.7167139591475711
    38   1       6.094727793957917      3.7097205168394698      2.0587171154221147
    39   1      4.6448674222717532      7.0264316367925703     0.84369806802840341
    40   1      1.0276386386694121      1.9214047278501376      1.6580637050572982
    41   1      7.9050208503241022      0.9341174412429939     0.18896157189788998
    42   1      6.4010425299722433      2.6065478092614582     0.25331158262159909
    43   1    0.097019767612701951      3.2537392028947534     0.84223619551749751
    44   1      4.7288988765722992     0.19345842416663292      6.9243470123165416
    45   1      2.7853976993659169      7.0990061240395343      1.1939536588232738
    46   1      3.3024875480892888      1.0717838674749691      4.4601937986490121
    47   1      2.5237142300586171     0.18129371965675559      7.2942101467527118
    48   1      5.0538553198294132      2.3784698385517737      6.1935196668998831
    49   1      6.9742655820855299      7.9811872237152945      6.7333658665812308
    50   1      7.5507152865495391      2.3765661921457868      3.6148377051864946
    51   1      4.5948299886676542      2.5798153393509531     0.91777002102855143
    52   1      5.0260336587086201      3.4724426992941559      7.6397032731537413
    53   1      4.4592378093334943    0.053568435956869886      2.5236488772533008
    54   1     0.49858895216015725      7.7852743271770599     0.35435673338078838
    55   1      1.7136305629393696      6.9613600364434447      5.6284498997852799
    56   1      2.9632472053583236      2.1295527070361495      7.7852872600003913
    57   1      7.8566026444340249     0.44942884470425498      5.8941581376015604
    58   1      4.0677057878916294      5.1783095611759968      1.2439203260595315
    59   1     0.60311772548048059      3.4403999817903141      6.5156427311044158
    60   1      7.9304216195190564      3.2286830043982069      7.2324132979285594
    61   1      6.8674471271530546      7.5603110635172888      4.6468065388661852
    62   1     0.75148391886241273     0.12954531916892778      2.1982467044018166
    63   1      7.6493659399751159      2.8432869846730164      1.5741597532046272
    64   1      4.8720994266148878      4.6693396583720839      6.0809759413161411
