(written by ASE)

64 atoms
1 atom types

0.0      7.7427499128154453  xlo xhi
0.0      7.7427499128154453  ylo yhi
0.0      7.7427499128154453  zlo zhi

Atoms # atomic

     1   1      7.6619071902132392       5.018010320984466      2.8277416001265507
     2   1      1.3541281809150825     0.79656496650288688      5.3545308992647325
     3   1       1.975203441527436      2.1493961999295461      3.4327239850958464
     4   1      4.0850635366924921       3.222130046789943      7.3997797706010209
     5   1      2.3080448964472762       4.661279673099207      0.1257842629419664
     6   1     0.49376942145643699      1.5403959475932298      2.1783675110990237
     7   1      3.6106248400474152       4.445944311224828      1.2846856495889529
     8   1      4.4803403564449882     0.63353533502679904      3.0372850231843782
     9   1      6.1794661043826284      3.6777444144914404      5.1572006983868492
    10   1      1.7310534952042893      5.4781870020094043      7.6212231295708941
    11   1      5.0401358691319702      7.5919156209556506      6.4564817966330974
    12   1      1.9135587617743466       6.771502881439174     0.10391838559151961
    13   1      6.1740727684167709      7.2784921771747539      2.5693566460497377
    14   1     0.14899336342206851      5.8017869985190185      6.7427312918995259
    15   1      7.0479038023437104      3.0520644637491241      6.9348882724261252
    16   1      4.3862717806461449      6.5574546651143129      5.1536382147552287
    17   1      1.8230793180776057      7.5576899700025528      4.9241708639422033
    18   1     0.74252903816852056      2.8652746862786453      4.6351212955502872
    19   1      7.6977899546043469      3.9989213661216607    0.019515865530591592
    20   1      2.6704307380308165       7.423899586809207        2.56459601837948
    21   1      4.3017803279665294      2.5316742517397421      4.7430905415452047
    22   1      3.7664510749534101      2.5477479247817159      0.7370386558391826
    23   1      2.1910232840138044       4.805952204263007       3.983231158031542
    24   1      4.0202778992268975      4.4349704077235126      5.5355641764604222
    25   1      7.6280446938450925      6.2478882895512786      5.5361941246887572
    26   1     0.52922434594104639      6.0402564230201579        4.73286009505017
    27   1      6.1196553053297063      3.0806500436904516     0.21812021618636102
    28   1      4.0394298427883868      6.0717715644914323      1.8290907463578543
    29   1      6.6898165996246783      3.4333652014486988      3.0833988525550131
    30   1     0.10337294386253436     0.54208963775128061     0.64723869908918263
    31   1      4.7906909622283314       3.990063802623796      2.7907102082016495
    32   1      2.1018409950759382      2.7202541247371226      7.3785029947749736
    33   1       1.752159859266825      5.0267783558678074      1.8129449251853886
    34   1      2.2556582137824153     0.96332631809897085     0.62213856365622278
    35   1      6.2726828656334073       4.656514092524354      1.1549146099601693
    36   1       7.737021240756607      1.7017683210801196       4.443112534764917
    37   1     0.79897608377391771     0.01730696680286456      3.3352135885741725
    38   1      6.5955402074899832      6.6046989073164939       7.623458530130633
    39   1       3.078063961065816     0.55353905682242721      4.3367165312948543
    40   1      3.0952433066055756      6.9107274072335532      6.7552357143703556
    41   1      5.9895832977573873     0.89011852442883244      4.6208934984481935
    42   1      7.1819460367824037      1.2644198531512676      7.2236020867112538
    43   1      5.1666303323810894     0.57418000496426913       6.823290150526617
    44   1      5.8471645789456241     0.88552387922895204     0.90842828521308916
    45   1     0.54947243135536405      1.9539420443337931      7.0132649001025893
    46   1     0.75925076536125247      3.8246844762134704      6.8539777251367084
    47   1      7.5417578916482855     0.20827909921688442      1.0780303774413864
    48   1     0.17563101626110658      7.3847565478223283      3.5098982098297635
    49   1      2.6962598270276805    0.020397239702703393      6.8876083518585745
    50   1      7.7175453658277355     0.22185233511178562      3.3520454834723346
    51   1      7.0319351749827028      6.1958577842449971     0.61868011041019733
    52   1      2.4162040258955364      3.0432160727773678      5.6759912826416423
    53   1      4.9392556558527563      7.5087453977655869      0.4153210210921699
    54   1      5.7747306883694822      1.9260500770996978      2.6149464038393191
    55   1     0.60044187972314278       4.500075980412813     0.53900279559231956
    56   1     0.79084910244228468      3.8256171290712526      2.7949787784951492
    57   1      7.4447297810629696      4.8915059403100933      7.2982443054674029
    58   1      3.7075511075222258      1.3503209273706367      6.1155461849314108
    59   1     0.49181516481709059      7.5182250624465476      7.4223153407945563
    60   1      4.1795054880118965      5.6015852864135107      7.3728161252925295
    61   1     0.12958542915399623      7.5892449155042829    0.093706445865068849
    62   1     0.46241673866957567      2.6765558662714173     0.67599306370778289
    63   1      5.4311867158626725      6.0078708953933626      3.8108542524309392
    64   1      5.7492827448787045      4.3447385110129684      7.2391837116030775
