(written by ASE)

64 atoms
1 atom types

0.0      7.5214062218486779  xlo xhi
0.0      7.5214062218486779  ylo yhi
0.0      7.5214062218486779  zlo zhi

Atoms # atomic

     1   1      6.2287675247291405      1.3815077329779435     0.82162787674562165
     2   1      6.6434251782558444       6.952179850402179      4.1543385820718042
     3   1      2.7596845755473689      5.6668494406143539      5.5586170619065527
     4   1      3.9063058436347582      2.8970368831952293      5.0709759585121263
     5   1      3.4980728239380428     0.98438456145805886      7.1432048346219021
     6   1    0.017987259602664465      7.3632356419923228      7.2717719669780552
     7   1      4.5907827981754377      3.4993220765750044      1.0516214908173771
     8   1      6.3053225816839005      6.0303581486278066     0.40419980622936302
     9   1      5.4678135741972946      0.3767785397688696      3.8162949214228989
    10   1      1.9271748730443987     0.78448398184593049     0.25217092013051862
    11   1      5.8667966406119856      5.5050862909076095      2.0153825141547239
    12   1      2.6709680865678354      5.0074005974685338     0.46160190957093883
    13   1      6.1583058824471806      4.1371602642657956      3.3177964572911045
    14   1    0.036086999056909728      6.6821658758026032     0.77817289643368681
    15   1      6.0943684756275713      5.4137005663163418      5.2535531383077112
    16   1      6.0492793421069964      0.9930329658026863      6.7553277132869809
    17   1      3.0160561592516739       3.784584777353734      3.1410248236703135
    18   1     0.42090200570764752      3.6976769440831747      6.9696847505099315
    19   1      3.5480692594033187       5.373661188269387      2.4763225092124421
    20   1    0.027312026898515286      7.1132799994283715      5.3195013116270911
    21   1      2.7574802602309445      3.0923070372504338      6.9898107685433919
    22   1      4.6973242742043952      6.1925821604849878      7.1860936578665067
    23   1     0.52468305647964741     0.05556300621841808      1.2963843408767035
    24   1      7.1579451953588853     0.60299817283758339      5.2181658228702474
    25   1      5.7791212983457463      3.2790538237997238      5.4972197491634214
    26   1      3.2021367214517351      1.4751273997013181      2.0700761426703793
    27   1      2.0864320067452575      1.2634383058760803      5.3518593238817473
    28   1      3.5118882835296383      7.2185870286973755      3.7611394209414661
    29   1      7.4490568358532334      7.2471819506198569      6.9985925063174923
    30   1     0.32016040643863974      5.4774363927086007      4.4604829559023242
    31   1      6.1346384960563105      4.7493927177719106      7.0073866443311736
    32   1      5.2873615693353306      7.1625644188809572      2.8837581811225368
    33   1     0.25936964916630495      1.7765986808994214      2.6503710975394164
    34   1      1.7322615051778045      5.3749047827516021      7.4899263942247449
    35   1      4.5903003767592407      6.6672921149258428      5.1125336720897598
    36   1      1.9792149035480782       6.216413224011184       3.551876254275554
    37   1     0.16619018134574298       3.659452170240773      2.0171652926941341
    38   1      5.0407205834004758      2.4829179924851279      3.5363496638826377
    39   1     0.57750273224135218      2.8751878040110745      5.2619541902100835
    40   1     0.25409882360762476      2.2267693529311301     0.10470933969434471
    41   1      1.5050351662438202     0.87648079764229436      3.7250633560468005
    42   1      1.9524349794958848      7.3865052525465646      5.7669620927007426
    43   1      6.7869355236387872      3.9771885289326505      1.4510806030431114
    44   1      4.0096440116827878      1.4871353247563202     0.25603983388336582
    45   1      4.1298404137576856      6.0280450066782914     0.48432482006366873
    46   1    0.041623085685556192      5.5137397940650086      6.8904709500932446
    47   1     0.48802661157691574       7.036761225896341      2.4978790081580167
    48   1      2.3538750741182244      3.0807902077816052      1.0727093318913425
    49   1      2.9536406299010225      7.3236156747549304     0.45494146849110023
    50   1     0.48675985970980712      1.8835385285448913      6.8467955601323585
    51   1      7.2356093577749698      2.7610509076844658      7.2533511013485992
    52   1      7.1394486469073737      2.2082396199998544      4.5121912150191434
    53   1      3.8381028885420427      4.6561534812503869      7.3560272785824337
    54   1      3.4455910214529397  0.00084620725180460763      3.0065451086695099
    55   1       7.409577540302914      2.7166581626993667      2.8037674684926803
    56   1    0.092855597491276726    0.015293397511424131       5.454864571998888
    57   1      1.7105225195073113      0.6055128000637614      7.1602753949420066
    58   1      4.5982810216603394      4.3464608742205879      4.2100284536088788
    59   1      5.3708048014550771     0.17778880905777855      1.9191332070875333
    60   1      4.2171544161976646     0.35768267731224884      5.0684129098784005
    61   1      2.4218746443810364      3.9382706932573353      5.4910921493245777
    62   1      3.4513946723377518      7.4768540708376801      7.1764222701570253
    63   1       0.878805938820999      5.0957417459183176     0.44194457575909846
    64   1     0.95596523761469643      3.2955917181961309      3.5379336394355678
