(written by ASE)

64 atoms
1 atom types

0.0       7.323381797701721  xlo xhi
0.0       7.323381797701721  ylo yhi
0.0       7.323381797701721  zlo zhi

Atoms # atomic

     1   1     0.84527466328385559      1.5788733670599231      3.8181446717321728
     2   1      2.7170822013940361      2.1942340052217308      3.5195445120976672
     3   1      6.3871680902612571      1.5742532406351322      4.6328071931854158
     4   1      2.2190591358833722     0.21944293161027106      3.4810908560465461
     5   1      5.2731567659731295      7.1624916116570958      7.1745071377057519
     6   1       3.829353127752988      3.6584557417609433      6.9328442928688387
     7   1      0.3633689073527635      2.0868494449152792      1.8634765944480924
     8   1      7.0150858529823852      5.7202791039184486      5.6287990252103395
     9   1       2.578041771684179      5.1594294267192646      1.7724724399059919
    10   1      7.1962798221665709      5.3986909629173887       3.408337604183159
    11   1     0.29706427704077731      2.7902616605904202      5.6477703756478519
    12   1      6.5230253922662662     0.95637989842673843      1.8850023829550635
    13   1      1.6268422769193114      5.8104343491900448      3.3735460475268284
    14   1      4.3643296056311316      4.4082854131587235      1.0828528716436314
    15   1      4.5778720574260046      7.0544983673561328     0.40285076581896045
    16   1       3.820194562376598      1.8664842934767387      5.3140439356050493
    17   1      4.3909042380020011      5.3955948413398227      3.1457547281733116
    18   1      6.7619546350125583      2.6554506836303799       6.058199518497406
    19   1      5.5141863582817363      1.2154139368712293    0.063842778539155043
    20   1      3.4486630210055669     0.81793834866840354      1.7106886456442276
    21   1      1.9442175989748003      6.8907515364123135      5.6193346356413478
    22   1    0.099900848733601749      6.3700200660398121       5.616005355007216
    23   1      2.0798375491009247      4.5880007710288071       6.398649499519415
    24   1      3.2967176980841675       3.183500516765398     0.35958696928118322
    25   1      1.7038939995180344       3.430334221696794      1.8747453735179276
    26   1      1.5037779510325413    0.047108823322059706     0.61353945328354276
    27   1      3.0116089413477334      1.9016361328402118       6.882588162634856
    28   1     0.65060014620819939     0.75583799617041514      6.0835798256855069
    29   1      5.6579368996186936      4.8085523651058786      4.9161214597477239
    30   1      5.5335752802333857      2.4278479793782677      2.6394418368802719
    31   1    0.010810515204613831      6.7875973332524326      1.3242887534544943
    32   1     0.92981190738753805      2.8293010134166727      7.2933431940624134
    33   1      6.0119941546661027      6.1346808891713414      1.9654843125460078
    34   1      6.2784477310677982      4.0634393299916374      1.7372242383410572
    35   1      3.5436460042082136      7.0350240968010924      3.2418801606703229
    36   1      7.2594391570245769      7.3136809569009928      6.7055587164784356
    37   1      1.4186171216123891      4.2902127269918244      4.4697791040549042
    38   1    0.098976323429151594      4.5837531209894662     0.94970176978022169
    39   1      4.0257651093933884       0.069280207254935      4.5590615827840342
    40   1       2.144531712262582    0.098715812467560282      6.9265567337342731
    41   1      5.2849271958653965      7.2577675021892532      4.4405135170016452
    42   1      6.6514867942730431     0.83699471535463843      7.0640457647876431
    43   1      6.8537544250537952      3.0371348186508014     0.41669841895736731
    44   1    0.018841997826251226      4.8356277283784026      3.5071255858249013
    45   1       3.751961558708421      5.9983754773452382      6.5071096276750842
    46   1    0.072909921829556329      7.0289597578441585      3.3395006771693656
    47   1       5.388685929641265    0.076396857658713249      3.1319712596330396
    48   1      3.8876012895037895      4.1657901391353676      5.0625917075988536
    49   1     0.56859507943778453      2.9190721901508647     0.13863708262098379
    50   1      7.1155368061976567      5.7845436288604235     0.48346871757156795
    51   1      1.4204339198772538      5.4323634922116604      0.1459441518367654
    52   1      2.3111119645723335      7.2016968729974815      1.2317234983668208
    53   1      4.9276821216904896      1.1627085826477273      6.8154627280364926
    54   1      5.5106865495019379      4.9582229144740175      7.2701282405911609
    55   1      7.2244157530157613      3.4406346459054702      4.4369728297003181
    56   1      0.1769258531385505      4.5046420316105822      6.1525481113814804
    57   1       2.203221056618335      2.7540379085522635      5.5004321074324043
    58   1      2.8321097746244726      7.3114928640677608      7.2456995904922534
    59   1      6.5951419395637645      7.2360391551121088      3.2676164844120121
    60   1       7.166327965434796    0.054405456754691585     0.26591046566235516
    61   1      2.9905083409273914      3.8848043709619047      3.1277627393659881
    62   1    0.019481126650926179     0.20298102635704443      2.7011372111185246
    63   1      1.2835796515755182      6.2018733237435404      7.2825035423252986
    64   1      7.2788836758243569     0.28704603434250953      3.6907783050767256
