(written by ASE)

64 atoms
1 atom types

0.0      7.1446909621542947  xlo xhi
0.0      7.1446909621542947  ylo yhi
0.0      7.1446909621542947  zlo zhi

Atoms # atomic

     1   1      3.2209080484661681       3.846566079703631      6.1006039561314109
     2   1      3.9381126170592977      3.3266721072523842     0.17847582272663456
     3   1      1.7860727560832372      3.2265431958678645      1.2040503064608705
     4   1      1.6673525565195852      5.5633216063972952      4.0833419481867557
     5   1     0.27853097424350359      3.9475765639268876      2.0037299818671426
     6   1      2.8645469981956961      6.6561793903019826     0.65394170449290567
     7   1      6.1455569732619866       5.365903700913556      7.1367735379473229
     8   1       5.057110864315157      5.5493825839972111      1.7968344792136786
     9   1      6.5167681972894904       6.308362565452982      4.1816217786274352
    10   1      4.2604463942937771      1.1797533736194221      3.9184420698412383
    11   1      6.9059962653228375      1.0212450576680758     0.13178047201435275
    12   1      3.3335764928671989       5.497716209354615      6.8815027251502094
    13   1      2.4568854686305004     0.36681521473973633      1.7533543787257129
    14   1      6.9881749229949852      4.0717343591920745      1.2074095183557421
    15   1      6.3125790139409883      1.7075244653084165      5.3837264045258308
    16   1      4.8185652527454659      4.4252363289616001      4.4042091672479069
    17   1       4.170975677120059       0.181696171870631      1.2110964953003354
    18   1     0.34568426112903428      2.2913210420224517      3.9437589178709938
    19   1       2.452151298254182     0.84141985901243943      6.0273621443389569
    20   1      5.9100217845116765      2.4184675012259782      1.2756338638256006
    21   1      2.8215483779902568      3.0362309251060018      2.9210457141455342
    22   1      1.0675403553053877      2.5666763506570667      5.6049890060891574
    23   1      0.7321022297362404      6.1009293000108213      6.7751727577805569
    24   1       2.113596316885558      5.8390249486222858      2.3993394238998027
    25   1      1.0630702145887057     0.39812711002508705       3.153163958204992
    26   1     0.24020012005260383      6.5333440956992552      4.4027554003502329
    27   1      6.2216261861379945      3.5343318712566769      5.3082237037071671
    28   1      5.9039933245089884     0.58320180487072459      3.4970506535867103
    29   1     0.49775544675006317     0.48137503099522433      6.5044700517925937
    30   1       4.702928607470704      6.6639959395691415      4.3226146249801793
    31   1     0.48474754165947542      1.1530778858620487      1.6579693255045362
    32   1      5.2707743487551602      2.5488405760571662      6.7198760269705833
    33   1      6.9158720409885888      5.9481833372367756     0.25728261004457181
    34   1  0.00014820006226835667      5.6749430622802048     0.31868875006090097
    35   1      6.2414076158929586    0.025226957431628391      7.0963262076886888
    36   1      2.2788024414585366      1.8241431547394438    0.062791472384769634
    37   1      4.8703758768730987      3.8348372815850489      2.1690555510778471
    38   1      6.2856325320408679      2.4326316445030476      3.4312965820477324
    39   1     0.36448601573789807      5.6388660107572113      2.4759095288939945
    40   1      2.0714295670929093      1.9013862379298143      4.3193485146876816
    41   1    0.012254476116242162      4.4236953943035413      4.3301544163487469
    42   1      3.2067156645602179      7.0905676573643968      5.2760009264090515
    43   1    0.057502515703640143       3.577789395591076      6.6323731782654223
    44   1      6.2729676209484362      7.1077171143891018       2.168446038810337
    45   1      3.0961646532345926      7.0511445733872522      3.2205502586397841
    46   1      4.3496606672094194     0.83306335289065725      6.0638872122098748
    47   1      1.0045380567559905      7.1417280999339923      0.1463510451576984
    48   1      5.4129242504492101      6.9319773906061251      5.9244332702795148
    49   1      6.2838084021931673      4.2327493432870371      3.4050622091331326
    50   1      6.4829644427249358     0.52829805343632763      1.8154954212904564
    51   1      1.7280013516482309      4.8759626006492081      5.8764916708359269
    52   1      1.2153070110013784     0.41849316719404128     0.11922671997633184
    53   1      3.0425693476045659      4.8217327272398478     0.52084581435905353
    54   1      3.8200088582734115      2.0398661004634282      1.6299438366686063
    55   1      5.3638302212205842      7.1062931217390961      0.1581440624571176
    56   1     0.10295846310139331      3.5696271407802933     0.20021909698804585
    57   1       3.739427624372837      2.5543116821273419      4.9784788408242244
    58   1      3.3415406071418703      4.7209865065323751      3.2535901613582769
    59   1      6.9751561812771241      1.7256175612079714      7.1372404750077321
    60   1      4.9782158476006408      4.7776460246121752    0.034465861089480763
    61   1      2.1554140594260982      3.8597095292092249       4.348337801339313
    62   1      2.4579974704284808      2.3693713528288094      6.9092069853784421
    63   1      2.7276453862435495     0.15452421704446001      4.0427634355766253
    64   1      4.7920602478840291      1.3095281518929229    0.021436400382521179
