(written by ASE)

64 atoms
1 atom types

0.0      9.4734842320139538  xlo xhi
0.0      9.4734842320139538  ylo yhi
0.0      9.4734842320139538  zlo zhi

Atoms # atomic

     1   1       0.369173524999448      1.2659114370234892      7.6356311067851781
     2   1      5.7397095355566341       2.037278706666982       6.593945071790662
     3   1      1.2353877570169645      6.3774336058798298       6.205513531081289
     4   1    0.052347930544387883      4.8458337749902176      6.8807377918825576
     5   1      7.1859574217704489      6.6855168240683849      8.3844656676192528
     6   1       7.163923052839789      8.7344567799864468      3.9296676077641126
     7   1     0.32362356852238161      1.7147329980115433      2.7263009049638307
     8   1     0.39591219439621367      1.0246477143151285      4.9146458239506279
     9   1      2.3919541898508792      2.7050125981213498      7.0242998690352838
    10   1      6.7226693100378601      8.0742945007724032       1.430093875472888
    11   1      1.8999420064697408      6.1384416196072529      2.5156871475117342
    12   1      1.8253239784417159      3.4816970784865799     0.15141704006252343
    13   1      4.1524107541389785     0.44781105217784661      2.3182586796248574
    14   1      4.4638718211785706      6.5163990644223189      3.2108378125904267
    15   1       8.783750338197061      8.1449879703567376      2.8990295602815412
    16   1     0.36852235938600253      7.2774519644012221      2.2737528617955678
    17   1      3.1467223804121507      5.4883231318469772      9.4628708686697305
    18   1       2.838990701987016      4.4385452805362906      5.9441460451666579
    19   1      5.1545838074118944      6.2390459458297967      1.0894220297067869
    20   1      1.1964491053178394      9.2416442983517157      7.7805874214489874
    21   1      7.8398511756450207      8.8492233811986711       9.100681407049235
    22   1       3.727697930842794      7.1436435039591588      6.0783778297680442
    23   1      8.1678364895387841      3.8559196083521008      1.4037684615454844
    24   1      9.0572720065618721       1.847371652466042      2.9953206366649048
    25   1      9.3231559880739674      4.9248345482609759      8.7347854997386598
    26   1      7.4029374813175588      1.1270196212335817      2.0461156846102662
    27   1      3.6679204850867912      8.3457251503161931      3.1640327264749759
    28   1      4.3870003903732666      4.5545242132066566      3.0765637126895164
    29   1      7.8164316994596046      5.8389034087322944      4.8487644545103397
    30   1        3.50052786831115      1.2328752287081275      4.3273389506694606
    31   1      9.0342304054598781      6.3235208998645662      2.8923702524839219
    32   1      2.7009375652432306      9.0423007636633201      6.2235064240937756
    33   1      5.3514457331904701      2.0331510435610678       3.018480654114116
    34   1      7.1245639477306337      3.3945697271005439      7.1760274197431766
    35   1      5.0422259569047005     0.57809043432296847      5.7283194728087592
    36   1      2.3833219931265766      2.0274248689716514      8.8306423599001018
    37   1      5.8680963180885346         4.2066014382598     0.59359770880727691
    38   1      8.8807209141288972     0.17778132354909865       8.200849156257437
    39   1      2.6067251431257032     0.49902918422177384      5.8933570318948423
    40   1      5.9542744516789332      9.4679029301163826      5.6938188955796001
    41   1      3.7525083277231488      8.5371129181973053     0.14574312425573385
    42   1      4.6219117689813185      4.5796538875783357      9.1390416974492439
    43   1      2.4416329539664687      1.1362115075081487     0.32124442688597032
    44   1     0.38751790145309373      4.5616626166514864      1.7620409811549627
    45   1      9.0858475040595881      2.1771755208854704      5.3787978804128942
    46   1      1.2482864170171224      3.5220242467347194      4.0837085930081187
    47   1      9.0282283824188401      6.4827411680712572      6.7352577262486362
    48   1      2.4983775013246099      8.3768011879567172      8.8228435891673378
    49   1      7.4716971585659708      5.7328883507020807      1.9833790440868571
    50   1      4.5846077128160267      6.3914578659027717      7.5103752686687955
    51   1     0.19814417963464237      8.9921941519674267      6.0708074179536471
    52   1     0.62766572702084489      6.4511273649111178      8.7533681230487161
    53   1      7.5064905084856575     0.20324730358765994     0.36916729924283576
    54   1      4.8566621980716667      5.4308086547919077      5.7442130961898235
    55   1      6.6348758966569177      0.5441087618343714      8.6166226720101697
    56   1       7.051674158402446       5.047723689853596      9.2343527069660247
    57   1      4.1288739110024011      1.6985803125359267     0.35040851615442486
    58   1      7.2811752420894367     0.79120578694803634      6.1000063638862922
    59   1     0.19196576525080244      8.9658007585461661      1.4313520777288011
    60   1      1.5431860625344771      8.2739434653854165      4.0344300678378238
    61   1      2.8872067431138819     0.33868971683773802      8.9442800756818439
    62   1      8.4541328296544069      4.2256118570034449      4.0452718910428693
    63   1      5.2398302362731135       3.689462789779363       6.230444187318704
    64   1      8.2862993892326546      1.8580533141037121      9.2974791027995192
